 Entering Gaussian System, Link 0=g09
 Input=A00.com
 Output=A00.log
 Initial command:
 /gscratch/pfaendtner/codes/G09/g09/l1.exe /gscratch/pfaendtner/wesley/gaussian/Gau-28630.inp -scrdir=/gscratch/pfaendtner/wesley/gaussian/
 Entering Link 1 = /gscratch/pfaendtner/codes/G09/g09/l1.exe PID=     28635.
  
 Copyright (c) 1988,1990,1992,1993,1995,1998,2003,2009, Gaussian, Inc.
                  All Rights Reserved.
  
 This is part of the Gaussian(R) 09 program.  It is based on
 the Gaussian(R) 03 system (copyright 2003, Gaussian, Inc.),
 the Gaussian(R) 98 system (copyright 1998, Gaussian, Inc.),
 the Gaussian(R) 94 system (copyright 1995, Gaussian, Inc.),
 the Gaussian 92(TM) system (copyright 1992, Gaussian, Inc.),
 the Gaussian 90(TM) system (copyright 1990, Gaussian, Inc.),
 the Gaussian 88(TM) system (copyright 1988, Gaussian, Inc.),
 the Gaussian 86(TM) system (copyright 1986, Carnegie Mellon
 University), and the Gaussian 82(TM) system (copyright 1983,
 Carnegie Mellon University). Gaussian is a federally registered
 trademark of Gaussian, Inc.
  
 This software contains proprietary and confidential information,
 including trade secrets, belonging to Gaussian, Inc.
  
 This software is provided under written license and may be
 used, copied, transmitted, or stored only in accord with that
 written license.
  
 The following legend is applicable only to US Government
 contracts under FAR:
  
                    RESTRICTED RIGHTS LEGEND
  
 Use, reproduction and disclosure by the US Government is
 subject to restrictions as set forth in subparagraphs (a)
 and (c) of the Commercial Computer Software - Restricted
 Rights clause in FAR 52.227-19.
  
 Gaussian, Inc.
 340 Quinnipiac St., Bldg. 40, Wallingford CT 06492
  
  
 ---------------------------------------------------------------
 Warning -- This program may not be used in any manner that
 competes with the business of Gaussian, Inc. or will provide
 assistance to any competitor of Gaussian, Inc.  The licensee
 of this program is prohibited from giving any competitor of
 Gaussian, Inc. access to this program.  By using this program,
 the user acknowledges that Gaussian, Inc. is engaged in the
 business of creating and licensing software in the field of
 computational chemistry and represents and warrants to the
 licensee that it is not a competitor of Gaussian, Inc. and that
 it will not use this program in any manner prohibited above.
 ---------------------------------------------------------------
  

 Cite this work as:
 Gaussian 09, Revision A.02,
 M. J. Frisch, G. W. Trucks, H. B. Schlegel, G. E. Scuseria, 
 M. A. Robb, J. R. Cheeseman, G. Scalmani, V. Barone, B. Mennucci, 
 G. A. Petersson, H. Nakatsuji, M. Caricato, X. Li, H. P. Hratchian, 
 A. F. Izmaylov, J. Bloino, G. Zheng, J. L. Sonnenberg, M. Hada, 
 M. Ehara, K. Toyota, R. Fukuda, J. Hasegawa, M. Ishida, T. Nakajima, 
 Y. Honda, O. Kitao, H. Nakai, T. Vreven, J. A. Montgomery, Jr., 
 J. E. Peralta, F. Ogliaro, M. Bearpark, J. J. Heyd, E. Brothers, 
 K. N. Kudin, V. N. Staroverov, R. Kobayashi, J. Normand, 
 K. Raghavachari, A. Rendell, J. C. Burant, S. S. Iyengar, J. Tomasi, 
 M. Cossi, N. Rega, J. M. Millam, M. Klene, J. E. Knox, J. B. Cross, 
 V. Bakken, C. Adamo, J. Jaramillo, R. Gomperts, R. E. Stratmann, 
 O. Yazyev, A. J. Austin, R. Cammi, C. Pomelli, J. W. Ochterski, 
 R. L. Martin, K. Morokuma, V. G. Zakrzewski, G. A. Voth, 
 P. Salvador, J. J. Dannenberg, S. Dapprich, A. D. Daniels, 
 O. Farkas, J. B. Foresman, J. V. Ortiz, J. Cioslowski, 
 and D. J. Fox, Gaussian, Inc., Wallingford CT, 2009.
 
 ******************************************
 Gaussian 09:  EM64L-G09RevA.02 11-Jun-2009
                12-Apr-2018 
 ******************************************
 %chk=molecule
 -------------------------------------------------------------------
 #HF/6-31G* SCF=tight Test Pop=MK iop(6/33=2) NoSymm iop(6/42=6) opt
 -------------------------------------------------------------------
 1/18=20,19=15,38=1/1,3;
 2/9=110,12=2,15=1,17=6,18=5,40=1/2;
 3/5=1,6=6,7=1,11=9,16=1,25=1,30=1,71=1/1,2,3;
 4//1;
 5/5=2,32=2,38=5/2;
 6/7=2,8=2,9=2,10=2,15=8,20=1,28=1,33=2,42=6/1,2;
 7/30=1/1,2,3,16;
 1/18=20,19=15/3(2);
 2/9=110,15=1/2;
 99//99;
 2/9=110,15=1/2;
 3/5=1,6=6,7=1,11=9,16=1,25=1,30=1,71=1/1,2,3;
 4/5=5,16=3/1;
 5/5=2,32=2,38=5/2;
 7/30=1/1,2,3,16;
 1/18=20,19=15/3(-5);
 2/9=110,15=1/2;
 6/7=2,8=2,9=2,10=2,15=8,19=2,20=1,28=1,33=2,42=6/1,2;
 99/9=1/99;
 ---------------------
 remark line goes here
 ---------------------
 Symbolic Z-matrix:
 Charge = -1 Multiplicity = 1
 B                     0.        0.        0. 
 F                    -0.275    -1.061    -0.955 
 F                    -0.625     1.233    -0.452 
 F                     1.437     0.196     0.107 
 F                    -0.537    -0.367     1.3 
 

 GradGradGradGradGradGradGradGradGradGradGradGradGradGradGradGradGradGrad
 Berny optimization.
 Initialization pass.
                           ----------------------------
                           !    Initial Parameters    !
                           ! (Angstroms and Degrees)  !
 --------------------------                            --------------------------
 ! Name  Definition              Value          Derivative Info.                !
 --------------------------------------------------------------------------------
 ! R1    R(1,2)                  1.4537         estimate D2E/DX2                !
 ! R2    R(1,3)                  1.4544         estimate D2E/DX2                !
 ! R3    R(1,4)                  1.4542         estimate D2E/DX2                !
 ! R4    R(1,5)                  1.4536         estimate D2E/DX2                !
 ! A1    A(2,1,3)              109.4687         estimate D2E/DX2                !
 ! A2    A(2,1,4)              109.4889         estimate D2E/DX2                !
 ! A3    A(2,1,5)              109.4722         estimate D2E/DX2                !
 ! A4    A(3,1,4)              109.4658         estimate D2E/DX2                !
 ! A5    A(3,1,5)              109.4647         estimate D2E/DX2                !
 ! A6    A(4,1,5)              109.467          estimate D2E/DX2                !
 ! D1    D(2,1,4,3)            120.0045         estimate D2E/DX2                !
 ! D2    D(2,1,5,3)           -119.9935         estimate D2E/DX2                !
 ! D3    D(2,1,5,4)            120.0196         estimate D2E/DX2                !
 ! D4    D(3,1,5,4)           -119.9868         estimate D2E/DX2                !
 --------------------------------------------------------------------------------
 Trust Radius=3.00D-01 FncErr=1.00D-07 GrdErr=1.00D-07
 Number of steps in this run=  24 maximum allowed number of steps= 100.
 GradGradGradGradGradGradGradGradGradGradGradGradGradGradGradGradGradGrad

                          Input orientation:                          
 ---------------------------------------------------------------------
 Center     Atomic      Atomic             Coordinates (Angstroms)
 Number     Number       Type             X           Y           Z
 ---------------------------------------------------------------------
      1          5           0        0.000000    0.000000    0.000000
      2          9           0       -0.275000   -1.061000   -0.955000
      3          9           0       -0.625000    1.233000   -0.452000
      4          9           0        1.437000    0.196000    0.107000
      5          9           0       -0.537000   -0.367000    1.300000
 ---------------------------------------------------------------------
                    Distance matrix (angstroms):
                    1          2          3          4          5
     1  B    0.000000
     2  F    1.453744   0.000000
     3  F    1.454379   2.374436   0.000000
     4  F    1.454247   2.374624   2.374804   0.000000
     5  F    1.453636   2.373880   2.374289   2.374214   0.000000
 Symmetry turned off by external request.
 Stoichiometry    BF4(1-)
 Framework group  C1[X(BF4)]
 Deg. of freedom     9
 Full point group                 C1      NOp   1
 Rotational constants (GHZ):      4.7193903      4.7186926      4.7173435
 Standard basis: 6-31G(d) (6D, 7F)
 Integral buffers will be    131072 words long.
 Raffenetti 1 integral format.
 Two-electron integral symmetry is turned off.
    75 basis functions,   140 primitive gaussians,    75 cartesian basis functions
    21 alpha electrons       21 beta electrons
       nuclear repulsion energy       173.8250858898 Hartrees.
 NAtoms=    5 NActive=    5 NUniq=    5 SFac= 7.50D-01 NAtFMM=   80 NAOKFM=F Big=F
 One-electron integrals computed using PRISM.
 NBasis=    75 RedAO= T  NBF=    75
 NBsUse=    75 1.00D-06 NBFU=    75
 Harris functional with IExCor=  205 diagonalized for initial guess.
 ExpMin= 1.27D-01 ExpMax= 7.00D+03 ExpMxC= 1.05D+03 IAcc=1 IRadAn=         1 AccDes= 0.00D+00
 HarFok:  IExCor=  205 AccDes= 0.00D+00 IRadAn=         1 IDoV= 1
 ScaDFX=  1.000000  1.000000  1.000000  1.000000
 FoFCou: FMM=F IPFlag=           0 FMFlag=      100000 FMFlg1=           0
         NFxFlg=           0 DoJE=T BraDBF=F KetDBF=T FulRan=T
         Omega=  0.000000  0.000000  1.000000  0.000000  0.000000 ICntrl=     500 IOpCl=  0
         NMat0=    1 NMatS0=    1 NMatT0=    0 NMatD0=    1 NMtDS0=    0 NMtDT0=    0
         I1Cent=           4 NGrid=           0.
 Symmetry not used in FoFCou.
 Requested convergence on RMS density matrix=1.00D-08 within 128 cycles.
 Requested convergence on MAX density matrix=1.00D-06.
 Requested convergence on             energy=1.00D-06.
 No special actions if energy rises.
 Keep R1 ints in memory in canonical form, NReq=4918620.
 SCF Done:  E(RHF) =  -422.714043545     A.U. after   10 cycles
             Convg  =    0.1251D-08             -V/T =  2.0030

 **********************************************************************

            Population analysis using the SCF density.

 **********************************************************************

 Alpha  occ. eigenvalues --  -26.03774 -26.03772 -26.03761 -26.03755  -7.51817
 Alpha  occ. eigenvalues --   -1.36175  -1.31187  -1.31176  -1.31162  -0.56358
 Alpha  occ. eigenvalues --   -0.48685  -0.48682  -0.48677  -0.41298  -0.41297
 Alpha  occ. eigenvalues --   -0.37952  -0.37948  -0.37943  -0.35985  -0.35981
 Alpha  occ. eigenvalues --   -0.35978
 Alpha virt. eigenvalues --    0.60895   0.63484   0.63485   0.63492   0.89579
 Alpha virt. eigenvalues --    0.89598   0.89614   0.94126   1.54072   1.54074
 Alpha virt. eigenvalues --    1.55913   1.55917   1.55921   1.69917   1.81273
 Alpha virt. eigenvalues --    1.81274   1.87633   1.87636   1.87637   1.92908
 Alpha virt. eigenvalues --    1.92914   1.92917   2.11589   2.11614   2.11644
 Alpha virt. eigenvalues --    2.27515   2.27523   2.27529   2.37294   2.37297
 Alpha virt. eigenvalues --    2.37299   2.38598   2.38600   2.44082   2.44090
 Alpha virt. eigenvalues --    2.44107   2.48758   2.48774   2.48783   2.59962
 Alpha virt. eigenvalues --    2.96490   2.96513   2.96521   3.21673   3.21677
 Alpha virt. eigenvalues --    3.49871   3.49894   3.49928   3.58682   4.23944
 Alpha virt. eigenvalues --    4.76354   4.76388   4.76413   5.72793
          Condensed to atoms (all electrons):
              1          2          3          4          5
     1  B    2.730961   0.297740   0.297481   0.297535   0.297782
     2  F    0.297740   9.272814  -0.017039  -0.017022  -0.017062
     3  F    0.297481  -0.017039   9.273530  -0.017023  -0.017045
     4  F    0.297535  -0.017022  -0.017023   9.273354  -0.017049
     5  F    0.297782  -0.017062  -0.017045  -0.017049   9.272746
 Mulliken atomic charges:
              1
     1  B    1.078501
     2  F   -0.519431
     3  F   -0.519904
     4  F   -0.519794
     5  F   -0.519372
 Sum of Mulliken atomic charges =  -1.00000
 Mulliken charges with hydrogens summed into heavy atoms:
              1
     1  B    1.078501
     2  F   -0.519431
     3  F   -0.519904
     4  F   -0.519794
     5  F   -0.519372
 Sum of Mulliken charges with hydrogens summed into heavy atoms =  -1.00000
 DipInt: DoE/N= T F RetVal/Mat= T F Init=T NMatP=  1 IDeriv=0 Min/MaxMlt=  0  4
 Entering OneElI...
 OneElI was handed    33538462 working-precision words.
 Multipole integrals L=0 to 4 MinM= 0 MaxM= 0.
 Requested accuracy = 0.1000D-12
 PrsmSu:  NPrtUS=   1 ThrOK=F IAlg=1
 PRISM was handed    33510219 working-precision words and   204 shell-pairs
 IPart=  0 NShTot=         204 NBatch=          14 AvBLen=        14.6
 Electronic moments (au):
        -42.00000000         -0.00027187         -0.01872583          0.00026440
       -113.25260636       -113.23625275       -113.18942786          0.00474719
         -0.02694870          0.00704856       -162.40242676        -40.71363530
        -78.71736707         81.39691121        -44.65141722        -22.12198937
         80.92948834         85.01099419        100.91328471        -22.69552849
       -806.96109636       -698.59867214       -714.17482536        -42.90194974
        -29.44823978         96.19403841        -27.42837082        105.10309433
         -0.48984357       -184.86070303       -168.43642213       -276.52841380
         28.09738429        -76.05061434        -53.10890457
 Electronic spatial extent (au):  <R**2>=            339.6783
 DipInt: DoE/N= F T RetVal/Mat= T F Init=T NMatP=  1 IDeriv=0 Min/MaxMlt=  0  4
 Nuclear    moments (au):
         41.00000000          0.00000000          0.01700754          0.00000000
         90.62038457         90.60518255         90.56221192         -0.00382461
          0.02519743         -0.00607438        154.72661972         38.76260431
         75.00140787        -77.55120583         42.53303211         21.07790393
        -77.10763138        -81.00457354        -96.14522162         21.62268672
        517.11463434        412.96804174        428.07411344         41.25776817
         28.28107212        -92.47810434         26.38696236       -101.09075247
          0.48125408         91.49248064         75.72274060        179.65931319
        -27.01154156         73.11062716         51.06832403
 Total      moments (au):
         -1.00000000         -0.00027187         -0.00171829          0.00026440
        -22.63222179        -22.63107020        -22.62721594          0.00092258
         -0.00175127          0.00097418         -7.67580704         -1.95103098
         -3.71595920          3.84570539         -2.11838510         -1.04408544
          3.82185696          4.00642065          4.76806309         -1.07284177
       -289.84646202       -285.63063039       -286.10071191         -1.64418157
         -1.16716766          3.71593407         -1.04140846          4.01234186
         -0.00858950        -93.36822239        -92.71368154        -96.86910061
          1.08584273         -2.93998719         -2.04058054
 Traceless Quadrup. (au):
         -0.00205248         -0.00090089          0.00295337          0.00092258
         -0.00175127          0.00097418
 Charge=             -1.0000 electrons
 Dipole moment (field-independent basis, Debye):
    X=             -0.0007    Y=             -0.0044    Z=              0.0007  Tot=              0.0045
 Quadrupole moment (field-independent basis, Debye-Ang):
   XX=            -30.4411   YY=            -30.4396   ZZ=            -30.4344
   XY=              0.0012   XZ=             -0.0024   YZ=              0.0013
 Traceless Quadrupole moment (field-independent basis, Debye-Ang):
   XX=             -0.0028   YY=             -0.0012   ZZ=              0.0040
   XY=              0.0012   XZ=             -0.0024   YZ=              0.0013
 Octapole moment (field-independent basis, Debye-Ang**2):
  XXX=             -5.4633  YYY=             -1.3887  ZZZ=             -2.6449  XYY=              2.7372
  XXY=             -1.5078  XXZ=             -0.7431  XZZ=              2.7203  YZZ=              2.8516
  YYZ=              3.3937  XYZ=             -0.7636
 Hexadecapole moment (field-independent basis, Debye-Ang**3):
 XXXX=           -109.1701 YYYY=           -107.5822 ZZZZ=           -107.7592 XXXY=             -0.6193
 XXXZ=             -0.4396 YYYX=              1.3996 YYYZ=             -0.3922 ZZZX=              1.5112
 ZZZY=             -0.0032 XXYY=            -35.1669 XXZZ=            -34.9204 YYZZ=            -36.4855
 XXYZ=              0.4090 YYXZ=             -1.1073 ZZXY=             -0.7686
 N-N= 1.738250858898D+02 E-N=-1.370480979484D+03  KE= 4.214699405259D+02
 Entering OneElI...
 OneElI was handed    33527012 working-precision words.
 Calculate electrostatic properties
    NBasis =    75  MinDer = 0  MaxDer = 0
    NGrid  =     5  NMatD  =   1
 Requested accuracy = 0.1000D-12
 PrsmSu:  NPrtUS=   1 ThrOK=F IAlg=1
 PRISM was handed    33499300 working-precision words and   204 shell-pairs
 IPart=  0 NShTot=        1020 NBatch=         204 AvBLen=         5.0
 --------------------------------------------------------
       Center         ----      EFG at Nuclei      ----
                      3XX-RR        3YY-RR        3ZZ-RR
 --------------------------------------------------------
     1   Atom       -0.000121     -0.000058      0.000178
     2   Atom        0.722892     -0.484632     -0.238260
     3   Atom        0.361081     -0.936792      0.575712
     4   Atom       -1.563259      0.766053      0.797207
     5   Atom        0.478323      0.655128     -1.133451
 --------------------------------------------------------
                        XY            XZ            YZ
 --------------------------------------------------------
     1   Atom        0.000107     -0.000055      0.000074
     2   Atom       -0.335806     -0.302294     -1.165217
     3   Atom        0.885857     -0.324681      0.640364
     4   Atom       -0.323709     -0.177139     -0.024192
     5   Atom       -0.226624      0.802943      0.548826
 --------------------------------------------------------


 ---------------------------------------------------------------------------------
              Nuclear Quadrupole in Principal Axis System
 ---------------------------------------------------------------------------------

       Atom             a.u.   MegaHertz   Gauss  10(-4) cm-1        Axes

              Baa    -0.0002    -0.038    -0.013    -0.013  0.7668 -0.6041  0.2171
     1 B(11)  Bbb     0.0000     0.003     0.001     0.001  0.6365  0.7592 -0.1357
              Bcc     0.0002     0.035     0.012     0.012 -0.0829  0.2422  0.9667
 
              Baa    -1.6203  -813.746  -290.365  -271.437  0.1893  0.7299  0.6568
     2 F(19)  Bbb     0.8100   406.797   145.155   135.693  0.9370 -0.3343  0.1014
              Bcc     0.8103   406.949   145.210   135.744 -0.2936 -0.5962  0.7472
 
              Baa    -1.6207  -813.942  -290.435  -271.502 -0.4299  0.8478 -0.3107
     3 F(19)  Bbb     0.8103   406.933   145.204   135.738  0.9022  0.4170 -0.1104
              Bcc     0.8104   407.009   145.231   135.764 -0.0360  0.3278  0.9441
 
              Baa    -1.6206  -813.921  -290.427  -271.495  0.9881  0.1348  0.0737
     4 F(19)  Bbb     0.8102   406.902   145.193   135.728 -0.1440  0.9797  0.1397
              Bcc     0.8104   407.019   145.235   135.767 -0.0534 -0.1487  0.9874
 
              Baa    -1.6201  -813.675  -290.339  -271.413 -0.3695 -0.2525  0.8943
     5 F(19)  Bbb     0.8100   406.783   145.150   135.688  0.7640 -0.6303  0.1377
              Bcc     0.8102   406.892   145.189   135.724  0.5289  0.7341  0.4258
 

 ---------------------------------------------------------------------------------

 No NMR shielding tensors so no spin-rotation constants.
 Leave Link  601 at Thu Apr 12 06:41:57 2018, MaxMem=   33554432 cpu:       0.1
 Merz-Kollman atomic radii used.
 Atom Element Radius
    1     5    1.45
    2     9    1.35
    3     9    1.35
    4     9    1.35
    5     9    1.35
 Generate VDW surfaces: Layer= 4 Dens= 6 Start= 1.400 Inc= 0.200

 **********************************************************************

            Electrostatic Properties Using The SCF Density

 **********************************************************************

       Atomic Center    1 is at   0.000000  0.000000  0.000000
       Atomic Center    2 is at  -0.275000 -1.061000 -0.955000
       Atomic Center    3 is at  -0.625000  1.233000 -0.452000
       Atomic Center    4 is at   1.437000  0.196000  0.107000
       Atomic Center    5 is at  -0.537000 -0.367000  1.300000
      ESP Fit Center    6 is at   0.306930  1.477031  1.358335
      ESP Fit Center    7 is at  -0.102949  1.505067  1.358335
      ESP Fit Center    8 is at   0.623407  1.643788  1.015000
      ESP Fit Center    9 is at   0.998676 -1.446832  1.015000
      ESP Fit Center   10 is at   0.516502 -1.860273  0.627304
      ESP Fit Center   11 is at   0.904330 -1.705748  0.627304
      ESP Fit Center   12 is at  -1.974762 -0.419749 -0.212193
      ESP Fit Center   13 is at   0.914047  0.766977 -1.642304
      ESP Fit Center   14 is at   0.715056  0.412838 -1.854497
      ESP Fit Center   15 is at  -0.864198 -2.081521  0.522662
      ESP Fit Center   16 is at  -0.479626 -2.221493  0.522662
      ESP Fit Center   17 is at  -0.070374 -2.221493  0.522662
      ESP Fit Center   18 is at   0.314198 -2.081521  0.522662
      ESP Fit Center   19 is at  -1.692806 -1.477305  0.223396
      ESP Fit Center   20 is at  -1.518088 -1.859884  0.223396
      ESP Fit Center   21 is at  -1.242662 -2.177742  0.223396
      ESP Fit Center   22 is at  -0.888843 -2.405128  0.223396
      ESP Fit Center   23 is at  -0.485293 -2.523621  0.223396
      ESP Fit Center   24 is at  -0.064707 -2.523621  0.223396
      ESP Fit Center   25 is at   0.338843 -2.405128  0.223396
      ESP Fit Center   26 is at   0.692662 -2.177742  0.223396
      ESP Fit Center   27 is at   0.968088 -1.859884  0.223396
      ESP Fit Center   28 is at  -1.928350 -0.653486 -0.134960
      ESP Fit Center   29 is at  -1.977831 -1.061000 -0.134960
      ESP Fit Center   30 is at  -1.928350 -1.468514 -0.134960
      ESP Fit Center   31 is at  -1.782782 -1.852345 -0.134960
      ESP Fit Center   32 is at  -1.549587 -2.190186 -0.134960
      ESP Fit Center   33 is at  -1.242318 -2.462403 -0.134960
      ESP Fit Center   34 is at  -0.878832 -2.653175 -0.134960
      ESP Fit Center   35 is at  -0.480254 -2.751416 -0.134960
      ESP Fit Center   36 is at  -0.069746 -2.751416 -0.134960
      ESP Fit Center   37 is at   0.328832 -2.653175 -0.134960
      ESP Fit Center   38 is at   0.692318 -2.462403 -0.134960
      ESP Fit Center   39 is at   0.999587 -2.190186 -0.134960
      ESP Fit Center   40 is at   1.232782 -1.852345 -0.134960
      ESP Fit Center   41 is at  -2.071416 -0.650980 -0.534435
      ESP Fit Center   42 is at  -2.117614 -1.061000 -0.534435
      ESP Fit Center   43 is at  -2.071416 -1.471020 -0.534435
      ESP Fit Center   44 is at  -1.935138 -1.860480 -0.534435
      ESP Fit Center   45 is at  -1.715613 -2.209851 -0.534435
      ESP Fit Center   46 is at  -1.423851 -2.501613 -0.534435
      ESP Fit Center   47 is at  -1.074480 -2.721138 -0.534435
      ESP Fit Center   48 is at  -0.685020 -2.857416 -0.534435
      ESP Fit Center   49 is at  -0.275000 -2.903614 -0.534435
      ESP Fit Center   50 is at   0.135020 -2.857416 -0.534435
      ESP Fit Center   51 is at   0.524480 -2.721138 -0.534435
      ESP Fit Center   52 is at   0.873851 -2.501613 -0.534435
      ESP Fit Center   53 is at   1.165613 -2.209851 -0.534435
      ESP Fit Center   54 is at   1.385138 -1.860480 -0.534435
      ESP Fit Center   55 is at  -1.894460 -0.086603 -0.955000
      ESP Fit Center   56 is at  -2.066064 -0.457520 -0.955000
      ESP Fit Center   57 is at  -2.153921 -0.856655 -0.955000
      ESP Fit Center   58 is at  -2.153921 -1.265345 -0.955000
      ESP Fit Center   59 is at  -2.066064 -1.664480 -0.955000
      ESP Fit Center   60 is at  -1.894460 -2.035397 -0.955000
      ESP Fit Center   61 is at  -1.647131 -2.360752 -0.955000
      ESP Fit Center   62 is at  -1.335644 -2.625332 -0.955000
      ESP Fit Center   63 is at  -0.974561 -2.816766 -0.955000
      ESP Fit Center   64 is at  -0.580768 -2.926102 -0.955000
      ESP Fit Center   65 is at  -0.172677 -2.948228 -0.955000
      ESP Fit Center   66 is at   0.230629 -2.882109 -0.955000
      ESP Fit Center   67 is at   0.610292 -2.730838 -0.955000
      ESP Fit Center   68 is at   0.948560 -2.501486 -0.955000
      ESP Fit Center   69 is at   1.229616 -2.204779 -0.955000
      ESP Fit Center   70 is at   1.440318 -1.854590 -0.955000
      ESP Fit Center   71 is at   1.570813 -1.467294 -0.955000
      ESP Fit Center   72 is at   1.567614 -1.061000 -1.375565
      ESP Fit Center   73 is at  -1.935138 -0.261520 -1.375565
      ESP Fit Center   74 is at  -2.071416 -0.650980 -1.375565
      ESP Fit Center   75 is at  -2.117614 -1.061000 -1.375565
      ESP Fit Center   76 is at  -2.071416 -1.471020 -1.375565
      ESP Fit Center   77 is at  -1.935138 -1.860480 -1.375565
      ESP Fit Center   78 is at  -1.715613 -2.209851 -1.375565
      ESP Fit Center   79 is at  -1.423851 -2.501613 -1.375565
      ESP Fit Center   80 is at  -1.074480 -2.721138 -1.375565
      ESP Fit Center   81 is at  -0.685020 -2.857416 -1.375565
      ESP Fit Center   82 is at  -0.275000 -2.903614 -1.375565
      ESP Fit Center   83 is at   0.135020 -2.857416 -1.375565
      ESP Fit Center   84 is at   0.524480 -2.721138 -1.375565
      ESP Fit Center   85 is at   0.873851 -2.501613 -1.375565
      ESP Fit Center   86 is at   1.165613 -2.209851 -1.375565
      ESP Fit Center   87 is at   1.385138 -1.860480 -1.375565
      ESP Fit Center   88 is at   1.521416 -1.471020 -1.375565
      ESP Fit Center   89 is at   1.427831 -1.061000 -1.775040
      ESP Fit Center   90 is at   1.378350 -0.653486 -1.775040
      ESP Fit Center   91 is at   1.232782 -0.269655 -1.775040
      ESP Fit Center   92 is at   0.999587  0.068186 -1.775040
      ESP Fit Center   93 is at  -1.549587  0.068186 -1.775040
      ESP Fit Center   94 is at  -1.782782 -0.269655 -1.775040
      ESP Fit Center   95 is at  -1.928350 -0.653486 -1.775040
      ESP Fit Center   96 is at  -1.977831 -1.061000 -1.775040
      ESP Fit Center   97 is at  -1.928350 -1.468514 -1.775040
      ESP Fit Center   98 is at  -1.782782 -1.852345 -1.775040
      ESP Fit Center   99 is at  -1.549587 -2.190186 -1.775040
      ESP Fit Center  100 is at  -1.242318 -2.462403 -1.775040
      ESP Fit Center  101 is at  -0.878832 -2.653175 -1.775040
      ESP Fit Center  102 is at  -0.480254 -2.751416 -1.775040
      ESP Fit Center  103 is at  -0.069746 -2.751416 -1.775040
      ESP Fit Center  104 is at   0.328832 -2.653175 -1.775040
      ESP Fit Center  105 is at   0.692318 -2.462403 -1.775040
      ESP Fit Center  106 is at   0.999587 -2.190186 -1.775040
      ESP Fit Center  107 is at   1.232782 -1.852345 -1.775040
      ESP Fit Center  108 is at   1.378350 -1.468514 -1.775040
      ESP Fit Center  109 is at   1.202662 -1.061000 -2.133396
      ESP Fit Center  110 is at   1.142806 -0.644695 -2.133396
      ESP Fit Center  111 is at   0.968088 -0.262116 -2.133396
      ESP Fit Center  112 is at   0.692662  0.055742 -2.133396
      ESP Fit Center  113 is at   0.338843  0.283128 -2.133396
      ESP Fit Center  114 is at  -0.064707  0.401621 -2.133396
      ESP Fit Center  115 is at  -0.888843  0.283128 -2.133396
      ESP Fit Center  116 is at  -1.242662  0.055742 -2.133396
      ESP Fit Center  117 is at  -1.518088 -0.262116 -2.133396
      ESP Fit Center  118 is at  -1.692806 -0.644695 -2.133396
      ESP Fit Center  119 is at  -1.752662 -1.061000 -2.133396
      ESP Fit Center  120 is at  -1.692806 -1.477305 -2.133396
      ESP Fit Center  121 is at  -1.518088 -1.859884 -2.133396
      ESP Fit Center  122 is at  -1.242662 -2.177742 -2.133396
      ESP Fit Center  123 is at  -0.888843 -2.405128 -2.133396
      ESP Fit Center  124 is at  -0.485293 -2.523621 -2.133396
      ESP Fit Center  125 is at  -0.064707 -2.523621 -2.133396
      ESP Fit Center  126 is at   0.338843 -2.405128 -2.133396
      ESP Fit Center  127 is at   0.692662 -2.177742 -2.133396
      ESP Fit Center  128 is at   0.968088 -1.859884 -2.133396
      ESP Fit Center  129 is at   1.142806 -1.477305 -2.133396
      ESP Fit Center  130 is at   0.903396 -1.061000 -2.432662
      ESP Fit Center  131 is at   0.832330 -0.657965 -2.432662
      ESP Fit Center  132 is at   0.627703 -0.303542 -2.432662
      ESP Fit Center  133 is at   0.314198 -0.040479 -2.432662
      ESP Fit Center  134 is at  -0.070374  0.099493 -2.432662
      ESP Fit Center  135 is at  -0.479626  0.099493 -2.432662
      ESP Fit Center  136 is at  -0.864198 -0.040479 -2.432662
      ESP Fit Center  137 is at  -1.177703 -0.303542 -2.432662
      ESP Fit Center  138 is at  -1.382330 -0.657965 -2.432662
      ESP Fit Center  139 is at  -1.453396 -1.061000 -2.432662
      ESP Fit Center  140 is at  -1.382330 -1.464035 -2.432662
      ESP Fit Center  141 is at  -1.177703 -1.818458 -2.432662
      ESP Fit Center  142 is at  -0.864198 -2.081521 -2.432662
      ESP Fit Center  143 is at  -0.479626 -2.221493 -2.432662
      ESP Fit Center  144 is at  -0.070374 -2.221493 -2.432662
      ESP Fit Center  145 is at   0.314198 -2.081521 -2.432662
      ESP Fit Center  146 is at   0.627703 -1.818458 -2.432662
      ESP Fit Center  147 is at   0.832330 -1.464035 -2.432662
      ESP Fit Center  148 is at   0.545040 -1.061000 -2.657831
      ESP Fit Center  149 is at   0.435176 -0.650980 -2.657831
      ESP Fit Center  150 is at   0.135020 -0.350824 -2.657831
      ESP Fit Center  151 is at  -0.275000 -0.240960 -2.657831
      ESP Fit Center  152 is at  -0.685020 -0.350824 -2.657831
      ESP Fit Center  153 is at  -0.985176 -0.650980 -2.657831
      ESP Fit Center  154 is at  -1.095040 -1.061000 -2.657831
      ESP Fit Center  155 is at  -0.985176 -1.471020 -2.657831
      ESP Fit Center  156 is at  -0.685020 -1.771176 -2.657831
      ESP Fit Center  157 is at  -0.275000 -1.881040 -2.657831
      ESP Fit Center  158 is at   0.135020 -1.771176 -2.657831
      ESP Fit Center  159 is at   0.435176 -1.471020 -2.657831
      ESP Fit Center  160 is at   0.145565 -1.061000 -2.797614
      ESP Fit Center  161 is at  -0.064718 -0.696780 -2.797614
      ESP Fit Center  162 is at  -0.485282 -0.696780 -2.797614
      ESP Fit Center  163 is at  -0.695565 -1.061000 -2.797614
      ESP Fit Center  164 is at  -0.485282 -1.425220 -2.797614
      ESP Fit Center  165 is at  -0.064718 -1.425220 -2.797614
      ESP Fit Center  166 is at  -0.275000 -1.061000 -2.845000
      ESP Fit Center  167 is at  -0.414718  1.597220  1.390614
      ESP Fit Center  168 is at  -0.835282  1.597220  1.390614
      ESP Fit Center  169 is at   0.085176  1.643020  1.250831
      ESP Fit Center  170 is at  -0.214980  1.943176  1.250831
      ESP Fit Center  171 is at  -0.625000  2.053040  1.250831
      ESP Fit Center  172 is at  -1.035020  1.943176  1.250831
      ESP Fit Center  173 is at  -1.335176  1.643020  1.250831
      ESP Fit Center  174 is at   0.277703  1.990458  1.025662
      ESP Fit Center  175 is at  -0.035802  2.253521  1.025662
      ESP Fit Center  176 is at  -0.420374  2.393493  1.025662
      ESP Fit Center  177 is at  -0.829626  2.393493  1.025662
      ESP Fit Center  178 is at  -1.214198  2.253521  1.025662
      ESP Fit Center  179 is at  -1.527703  1.990458  1.025662
      ESP Fit Center  180 is at  -1.732330  1.636035  1.025662
      ESP Fit Center  181 is at  -1.803396  1.233000  1.025662
      ESP Fit Center  182 is at   0.618088  2.031884  0.726396
      ESP Fit Center  183 is at   0.342662  2.349742  0.726396
      ESP Fit Center  184 is at  -0.011157  2.577128  0.726396
      ESP Fit Center  185 is at  -0.414707  2.695621  0.726396
      ESP Fit Center  186 is at  -0.835293  2.695621  0.726396
      ESP Fit Center  187 is at  -1.238843  2.577128  0.726396
      ESP Fit Center  188 is at  -1.592662  2.349742  0.726396
      ESP Fit Center  189 is at  -1.868088  2.031884  0.726396
      ESP Fit Center  190 is at  -2.042806  1.649305  0.726396
      ESP Fit Center  191 is at  -2.102662  1.233000  0.726396
      ESP Fit Center  192 is at  -2.042806  0.816695  0.726396
      ESP Fit Center  193 is at   0.882782  2.024345  0.368040
      ESP Fit Center  194 is at   0.649587  2.362186  0.368040
      ESP Fit Center  195 is at   0.342318  2.634403  0.368040
      ESP Fit Center  196 is at  -0.021168  2.825175  0.368040
      ESP Fit Center  197 is at  -0.419746  2.923416  0.368040
      ESP Fit Center  198 is at  -0.830254  2.923416  0.368040
      ESP Fit Center  199 is at  -1.228832  2.825175  0.368040
      ESP Fit Center  200 is at  -1.592318  2.634403  0.368040
      ESP Fit Center  201 is at  -1.899587  2.362186  0.368040
      ESP Fit Center  202 is at  -2.132782  2.024345  0.368040
      ESP Fit Center  203 is at  -2.278350  1.640514  0.368040
      ESP Fit Center  204 is at  -2.327831  1.233000  0.368040
      ESP Fit Center  205 is at  -2.278350  0.825486  0.368040
      ESP Fit Center  206 is at  -2.132782  0.441655  0.368040
      ESP Fit Center  207 is at   0.815613  2.381851 -0.031435
      ESP Fit Center  208 is at   0.523851  2.673613 -0.031435
      ESP Fit Center  209 is at   0.174480  2.893138 -0.031435
      ESP Fit Center  210 is at  -0.214980  3.029416 -0.031435
      ESP Fit Center  211 is at  -0.625000  3.075614 -0.031435
      ESP Fit Center  212 is at  -1.035020  3.029416 -0.031435
      ESP Fit Center  213 is at  -1.424480  2.893138 -0.031435
      ESP Fit Center  214 is at  -1.773851  2.673613 -0.031435
      ESP Fit Center  215 is at  -2.065613  2.381851 -0.031435
      ESP Fit Center  216 is at  -2.285138  2.032480 -0.031435
      ESP Fit Center  217 is at  -2.421416  1.643020 -0.031435
      ESP Fit Center  218 is at  -2.467614  1.233000 -0.031435
      ESP Fit Center  219 is at  -2.421416  0.822980 -0.031435
      ESP Fit Center  220 is at  -2.285138  0.433520 -0.031435
      ESP Fit Center  221 is at  -2.065613  0.084149 -0.031435
      ESP Fit Center  222 is at   1.090318  2.026590 -0.452000
      ESP Fit Center  223 is at   0.879616  2.376779 -0.452000
      ESP Fit Center  224 is at   0.598560  2.673486 -0.452000
      ESP Fit Center  225 is at   0.260292  2.902838 -0.452000
      ESP Fit Center  226 is at  -0.119371  3.054109 -0.452000
      ESP Fit Center  227 is at  -0.522677  3.120228 -0.452000
      ESP Fit Center  228 is at  -0.930768  3.098102 -0.452000
      ESP Fit Center  229 is at  -1.324561  2.988766 -0.452000
      ESP Fit Center  230 is at  -1.685644  2.797332 -0.452000
      ESP Fit Center  231 is at  -1.997131  2.532752 -0.452000
      ESP Fit Center  232 is at  -2.244460  2.207397 -0.452000
      ESP Fit Center  233 is at  -2.416064  1.836480 -0.452000
      ESP Fit Center  234 is at  -2.503921  1.437345 -0.452000
      ESP Fit Center  235 is at  -2.503921  1.028655 -0.452000
      ESP Fit Center  236 is at  -2.416064  0.629520 -0.452000
      ESP Fit Center  237 is at  -2.244460  0.258603 -0.452000
      ESP Fit Center  238 is at  -1.997131 -0.066752 -0.452000
      ESP Fit Center  239 is at   1.035138  2.032480 -0.872565
      ESP Fit Center  240 is at   0.815613  2.381851 -0.872565
      ESP Fit Center  241 is at   0.523851  2.673613 -0.872565
      ESP Fit Center  242 is at   0.174480  2.893138 -0.872565
      ESP Fit Center  243 is at  -0.214980  3.029416 -0.872565
      ESP Fit Center  244 is at  -0.625000  3.075614 -0.872565
      ESP Fit Center  245 is at  -1.035020  3.029416 -0.872565
      ESP Fit Center  246 is at  -1.424480  2.893138 -0.872565
      ESP Fit Center  247 is at  -1.773851  2.673613 -0.872565
      ESP Fit Center  248 is at  -2.065613  2.381851 -0.872565
      ESP Fit Center  249 is at  -2.285138  2.032480 -0.872565
      ESP Fit Center  250 is at  -2.421416  1.643020 -0.872565
      ESP Fit Center  251 is at  -2.467614  1.233000 -0.872565
      ESP Fit Center  252 is at  -2.421416  0.822980 -0.872565
      ESP Fit Center  253 is at  -2.285138  0.433520 -0.872565
      ESP Fit Center  254 is at  -2.065613  0.084149 -0.872565
      ESP Fit Center  255 is at   1.028350  1.640514 -1.272040
      ESP Fit Center  256 is at   0.882782  2.024345 -1.272040
      ESP Fit Center  257 is at   0.649587  2.362186 -1.272040
      ESP Fit Center  258 is at   0.342318  2.634403 -1.272040
      ESP Fit Center  259 is at  -0.021168  2.825175 -1.272040
      ESP Fit Center  260 is at  -0.419746  2.923416 -1.272040
      ESP Fit Center  261 is at  -0.830254  2.923416 -1.272040
      ESP Fit Center  262 is at  -1.228832  2.825175 -1.272040
      ESP Fit Center  263 is at  -1.592318  2.634403 -1.272040
      ESP Fit Center  264 is at  -1.899587  2.362186 -1.272040
      ESP Fit Center  265 is at  -2.132782  2.024345 -1.272040
      ESP Fit Center  266 is at  -2.278350  1.640514 -1.272040
      ESP Fit Center  267 is at  -2.327831  1.233000 -1.272040
      ESP Fit Center  268 is at  -2.278350  0.825486 -1.272040
      ESP Fit Center  269 is at  -2.132782  0.441655 -1.272040
      ESP Fit Center  270 is at  -1.899587  0.103814 -1.272040
      ESP Fit Center  271 is at   0.852662  1.233000 -1.630396
      ESP Fit Center  272 is at   0.792806  1.649305 -1.630396
      ESP Fit Center  273 is at   0.618088  2.031884 -1.630396
      ESP Fit Center  274 is at   0.342662  2.349742 -1.630396
      ESP Fit Center  275 is at  -0.011157  2.577128 -1.630396
      ESP Fit Center  276 is at  -0.414707  2.695621 -1.630396
      ESP Fit Center  277 is at  -0.835293  2.695621 -1.630396
      ESP Fit Center  278 is at  -1.238843  2.577128 -1.630396
      ESP Fit Center  279 is at  -1.592662  2.349742 -1.630396
      ESP Fit Center  280 is at  -1.868088  2.031884 -1.630396
      ESP Fit Center  281 is at  -2.042806  1.649305 -1.630396
      ESP Fit Center  282 is at  -2.102662  1.233000 -1.630396
      ESP Fit Center  283 is at  -2.042806  0.816695 -1.630396
      ESP Fit Center  284 is at  -1.868088  0.434116 -1.630396
      ESP Fit Center  285 is at  -1.592662  0.116258 -1.630396
      ESP Fit Center  286 is at   0.553396  1.233000 -1.929662
      ESP Fit Center  287 is at   0.482330  1.636035 -1.929662
      ESP Fit Center  288 is at   0.277703  1.990458 -1.929662
      ESP Fit Center  289 is at  -0.035802  2.253521 -1.929662
      ESP Fit Center  290 is at  -0.420374  2.393493 -1.929662
      ESP Fit Center  291 is at  -0.829626  2.393493 -1.929662
      ESP Fit Center  292 is at  -1.214198  2.253521 -1.929662
      ESP Fit Center  293 is at  -1.527703  1.990458 -1.929662
      ESP Fit Center  294 is at  -1.732330  1.636035 -1.929662
      ESP Fit Center  295 is at  -1.803396  1.233000 -1.929662
      ESP Fit Center  296 is at  -1.732330  0.829965 -1.929662
      ESP Fit Center  297 is at  -1.527703  0.475542 -1.929662
      ESP Fit Center  298 is at   0.482330  0.829965 -1.929662
      ESP Fit Center  299 is at   0.195040  1.233000 -2.154831
      ESP Fit Center  300 is at   0.085176  1.643020 -2.154831
      ESP Fit Center  301 is at  -0.214980  1.943176 -2.154831
      ESP Fit Center  302 is at  -0.625000  2.053040 -2.154831
      ESP Fit Center  303 is at  -1.035020  1.943176 -2.154831
      ESP Fit Center  304 is at  -1.335176  1.643020 -2.154831
      ESP Fit Center  305 is at  -1.445040  1.233000 -2.154831
      ESP Fit Center  306 is at  -1.335176  0.822980 -2.154831
      ESP Fit Center  307 is at  -1.035020  0.522824 -2.154831
      ESP Fit Center  308 is at  -0.625000  0.412960 -2.154831
      ESP Fit Center  309 is at  -0.214980  0.522824 -2.154831
      ESP Fit Center  310 is at   0.085176  0.822980 -2.154831
      ESP Fit Center  311 is at  -0.204435  1.233000 -2.294614
      ESP Fit Center  312 is at  -0.414718  1.597220 -2.294614
      ESP Fit Center  313 is at  -0.835282  1.597220 -2.294614
      ESP Fit Center  314 is at  -1.045565  1.233000 -2.294614
      ESP Fit Center  315 is at  -0.835282  0.868780 -2.294614
      ESP Fit Center  316 is at  -0.414718  0.868780 -2.294614
      ESP Fit Center  317 is at  -0.625000  1.233000 -2.342000
      ESP Fit Center  318 is at   1.437000  0.196000  1.997000
      ESP Fit Center  319 is at   1.857565  0.196000  1.949614
      ESP Fit Center  320 is at   1.647282  0.560220  1.949614
      ESP Fit Center  321 is at   1.226718  0.560220  1.949614
      ESP Fit Center  322 is at   1.226718 -0.168220  1.949614
      ESP Fit Center  323 is at   1.647282 -0.168220  1.949614
      ESP Fit Center  324 is at   2.257040  0.196000  1.809831
      ESP Fit Center  325 is at   2.147176  0.606020  1.809831
      ESP Fit Center  326 is at   1.847020  0.906176  1.809831
      ESP Fit Center  327 is at   1.437000  1.016040  1.809831
      ESP Fit Center  328 is at   1.026980  0.906176  1.809831
      ESP Fit Center  329 is at   1.437000 -0.624040  1.809831
      ESP Fit Center  330 is at   1.847020 -0.514176  1.809831
      ESP Fit Center  331 is at   2.147176 -0.214020  1.809831
      ESP Fit Center  332 is at   2.615396  0.196000  1.584662
      ESP Fit Center  333 is at   2.544330  0.599035  1.584662
      ESP Fit Center  334 is at   2.339703  0.953458  1.584662
      ESP Fit Center  335 is at   2.026198  1.216521  1.584662
      ESP Fit Center  336 is at   1.641626  1.356493  1.584662
      ESP Fit Center  337 is at   1.232374  1.356493  1.584662
      ESP Fit Center  338 is at   0.847802  1.216521  1.584662
      ESP Fit Center  339 is at   1.641626 -0.964493  1.584662
      ESP Fit Center  340 is at   2.026198 -0.824521  1.584662
      ESP Fit Center  341 is at   2.339703 -0.561458  1.584662
      ESP Fit Center  342 is at   2.544330 -0.207035  1.584662
      ESP Fit Center  343 is at   2.914662  0.196000  1.285396
      ESP Fit Center  344 is at   2.854806  0.612305  1.285396
      ESP Fit Center  345 is at   2.680088  0.994884  1.285396
      ESP Fit Center  346 is at   2.404662  1.312742  1.285396
      ESP Fit Center  347 is at   2.050843  1.540128  1.285396
      ESP Fit Center  348 is at   1.647293  1.658621  1.285396
      ESP Fit Center  349 is at   1.226707  1.658621  1.285396
      ESP Fit Center  350 is at   0.823157  1.540128  1.285396
      ESP Fit Center  351 is at   1.226707 -1.266621  1.285396
      ESP Fit Center  352 is at   1.647293 -1.266621  1.285396
      ESP Fit Center  353 is at   2.050843 -1.148128  1.285396
      ESP Fit Center  354 is at   2.404662 -0.920742  1.285396
      ESP Fit Center  355 is at   2.680088 -0.602884  1.285396
      ESP Fit Center  356 is at   2.854806 -0.220305  1.285396
      ESP Fit Center  357 is at   3.139831  0.196000  0.927040
      ESP Fit Center  358 is at   3.090350  0.603514  0.927040
      ESP Fit Center  359 is at   2.944782  0.987345  0.927040
      ESP Fit Center  360 is at   2.711587  1.325186  0.927040
      ESP Fit Center  361 is at   2.404318  1.597403  0.927040
      ESP Fit Center  362 is at   2.040832  1.788175  0.927040
      ESP Fit Center  363 is at   1.642254  1.886416  0.927040
      ESP Fit Center  364 is at   1.231746  1.886416  0.927040
      ESP Fit Center  365 is at   0.833168  1.788175  0.927040
      ESP Fit Center  366 is at   1.231746 -1.494416  0.927040
      ESP Fit Center  367 is at   1.642254 -1.494416  0.927040
      ESP Fit Center  368 is at   2.040832 -1.396175  0.927040
      ESP Fit Center  369 is at   2.404318 -1.205403  0.927040
      ESP Fit Center  370 is at   2.711587 -0.933186  0.927040
      ESP Fit Center  371 is at   2.944782 -0.595345  0.927040
      ESP Fit Center  372 is at   3.090350 -0.211514  0.927040
      ESP Fit Center  373 is at   3.279614  0.196000  0.527565
      ESP Fit Center  374 is at   3.233416  0.606020  0.527565
      ESP Fit Center  375 is at   3.097138  0.995480  0.527565
      ESP Fit Center  376 is at   2.877613  1.344851  0.527565
      ESP Fit Center  377 is at   2.585851  1.636613  0.527565
      ESP Fit Center  378 is at   2.236480  1.856138  0.527565
      ESP Fit Center  379 is at   1.847020  1.992416  0.527565
      ESP Fit Center  380 is at   1.437000  2.038614  0.527565
      ESP Fit Center  381 is at   1.026980  1.992416  0.527565
      ESP Fit Center  382 is at   1.437000 -1.646614  0.527565
      ESP Fit Center  383 is at   1.847020 -1.600416  0.527565
      ESP Fit Center  384 is at   2.236480 -1.464138  0.527565
      ESP Fit Center  385 is at   2.585851 -1.244613  0.527565
      ESP Fit Center  386 is at   2.877613 -0.952851  0.527565
      ESP Fit Center  387 is at   3.097138 -0.603480  0.527565
      ESP Fit Center  388 is at   3.233416 -0.214020  0.527565
      ESP Fit Center  389 is at   3.327000  0.196000  0.107000
      ESP Fit Center  390 is at   3.282813  0.602294  0.107000
      ESP Fit Center  391 is at   3.152318  0.989590  0.107000
      ESP Fit Center  392 is at   2.941616  1.339779  0.107000
      ESP Fit Center  393 is at   2.660560  1.636486  0.107000
      ESP Fit Center  394 is at   2.322292  1.865838  0.107000
      ESP Fit Center  395 is at   1.942629  2.017109  0.107000
      ESP Fit Center  396 is at   1.539323  2.083228  0.107000
      ESP Fit Center  397 is at   1.131232  2.061102  0.107000
      ESP Fit Center  398 is at   1.539323 -1.691228  0.107000
      ESP Fit Center  399 is at   1.942629 -1.625109  0.107000
      ESP Fit Center  400 is at   2.322292 -1.473838  0.107000
      ESP Fit Center  401 is at   2.660560 -1.244486  0.107000
      ESP Fit Center  402 is at   2.941616 -0.947779  0.107000
      ESP Fit Center  403 is at   3.152318 -0.597590  0.107000
      ESP Fit Center  404 is at   3.282813 -0.210294  0.107000
      ESP Fit Center  405 is at   3.279614  0.196000 -0.313565
      ESP Fit Center  406 is at   3.233416  0.606020 -0.313565
      ESP Fit Center  407 is at   3.097138  0.995480 -0.313565
      ESP Fit Center  408 is at   2.877613  1.344851 -0.313565
      ESP Fit Center  409 is at   2.585851  1.636613 -0.313565
      ESP Fit Center  410 is at   2.236480  1.856138 -0.313565
      ESP Fit Center  411 is at   1.847020  1.992416 -0.313565
      ESP Fit Center  412 is at   1.437000  2.038614 -0.313565
      ESP Fit Center  413 is at   1.437000 -1.646614 -0.313565
      ESP Fit Center  414 is at   1.847020 -1.600416 -0.313565
      ESP Fit Center  415 is at   2.236480 -1.464138 -0.313565
      ESP Fit Center  416 is at   2.585851 -1.244613 -0.313565
      ESP Fit Center  417 is at   2.877613 -0.952851 -0.313565
      ESP Fit Center  418 is at   3.097138 -0.603480 -0.313565
      ESP Fit Center  419 is at   3.233416 -0.214020 -0.313565
      ESP Fit Center  420 is at   3.139831  0.196000 -0.713040
      ESP Fit Center  421 is at   3.090350  0.603514 -0.713040
      ESP Fit Center  422 is at   2.944782  0.987345 -0.713040
      ESP Fit Center  423 is at   2.711587  1.325186 -0.713040
      ESP Fit Center  424 is at   2.404318  1.597403 -0.713040
      ESP Fit Center  425 is at   2.040832  1.788175 -0.713040
      ESP Fit Center  426 is at   1.642254  1.886416 -0.713040
      ESP Fit Center  427 is at   1.231746  1.886416 -0.713040
      ESP Fit Center  428 is at   1.642254 -1.494416 -0.713040
      ESP Fit Center  429 is at   2.040832 -1.396175 -0.713040
      ESP Fit Center  430 is at   2.404318 -1.205403 -0.713040
      ESP Fit Center  431 is at   2.711587 -0.933186 -0.713040
      ESP Fit Center  432 is at   2.944782 -0.595345 -0.713040
      ESP Fit Center  433 is at   3.090350 -0.211514 -0.713040
      ESP Fit Center  434 is at   2.914662  0.196000 -1.071396
      ESP Fit Center  435 is at   2.854806  0.612305 -1.071396
      ESP Fit Center  436 is at   2.680088  0.994884 -1.071396
      ESP Fit Center  437 is at   2.404662  1.312742 -1.071396
      ESP Fit Center  438 is at   2.050843  1.540128 -1.071396
      ESP Fit Center  439 is at   1.647293  1.658621 -1.071396
      ESP Fit Center  440 is at   1.226707  1.658621 -1.071396
      ESP Fit Center  441 is at   1.647293 -1.266621 -1.071396
      ESP Fit Center  442 is at   2.050843 -1.148128 -1.071396
      ESP Fit Center  443 is at   2.404662 -0.920742 -1.071396
      ESP Fit Center  444 is at   2.680088 -0.602884 -1.071396
      ESP Fit Center  445 is at   2.854806 -0.220305 -1.071396
      ESP Fit Center  446 is at   2.615396  0.196000 -1.370662
      ESP Fit Center  447 is at   2.544330  0.599035 -1.370662
      ESP Fit Center  448 is at   2.339703  0.953458 -1.370662
      ESP Fit Center  449 is at   2.026198  1.216521 -1.370662
      ESP Fit Center  450 is at   1.641626  1.356493 -1.370662
      ESP Fit Center  451 is at   1.232374  1.356493 -1.370662
      ESP Fit Center  452 is at   1.641626 -0.964493 -1.370662
      ESP Fit Center  453 is at   2.026198 -0.824521 -1.370662
      ESP Fit Center  454 is at   2.339703 -0.561458 -1.370662
      ESP Fit Center  455 is at   2.544330 -0.207035 -1.370662
      ESP Fit Center  456 is at   2.257040  0.196000 -1.595831
      ESP Fit Center  457 is at   2.147176  0.606020 -1.595831
      ESP Fit Center  458 is at   1.847020  0.906176 -1.595831
      ESP Fit Center  459 is at   1.437000  1.016040 -1.595831
      ESP Fit Center  460 is at   1.026980  0.906176 -1.595831
      ESP Fit Center  461 is at   1.847020 -0.514176 -1.595831
      ESP Fit Center  462 is at   2.147176 -0.214020 -1.595831
      ESP Fit Center  463 is at   1.857565  0.196000 -1.735614
      ESP Fit Center  464 is at   1.647282  0.560220 -1.735614
      ESP Fit Center  465 is at   1.226718  0.560220 -1.735614
      ESP Fit Center  466 is at   1.226718 -0.168220 -1.735614
      ESP Fit Center  467 is at   1.647282 -0.168220 -1.735614
      ESP Fit Center  468 is at   1.437000  0.196000 -1.783000
      ESP Fit Center  469 is at  -0.537000 -0.367000  3.190000
      ESP Fit Center  470 is at  -0.116435 -0.367000  3.142614
      ESP Fit Center  471 is at  -0.326718 -0.002780  3.142614
      ESP Fit Center  472 is at  -0.747282 -0.002780  3.142614
      ESP Fit Center  473 is at  -0.957565 -0.367000  3.142614
      ESP Fit Center  474 is at  -0.747282 -0.731220  3.142614
      ESP Fit Center  475 is at  -0.326718 -0.731220  3.142614
      ESP Fit Center  476 is at   0.283040 -0.367000  3.002831
      ESP Fit Center  477 is at   0.173176  0.043020  3.002831
      ESP Fit Center  478 is at  -0.126980  0.343176  3.002831
      ESP Fit Center  479 is at  -0.537000  0.453040  3.002831
      ESP Fit Center  480 is at  -0.947020  0.343176  3.002831
      ESP Fit Center  481 is at  -1.247176  0.043020  3.002831
      ESP Fit Center  482 is at  -1.357040 -0.367000  3.002831
      ESP Fit Center  483 is at  -1.247176 -0.777020  3.002831
      ESP Fit Center  484 is at  -0.947020 -1.077176  3.002831
      ESP Fit Center  485 is at  -0.537000 -1.187040  3.002831
      ESP Fit Center  486 is at  -0.126980 -1.077176  3.002831
      ESP Fit Center  487 is at   0.173176 -0.777020  3.002831
      ESP Fit Center  488 is at   0.641396 -0.367000  2.777662
      ESP Fit Center  489 is at   0.570330  0.036035  2.777662
      ESP Fit Center  490 is at   0.365703  0.390458  2.777662
      ESP Fit Center  491 is at   0.052198  0.653521  2.777662
      ESP Fit Center  492 is at  -0.332374  0.793493  2.777662
      ESP Fit Center  493 is at  -0.741626  0.793493  2.777662
      ESP Fit Center  494 is at  -1.126198  0.653521  2.777662
      ESP Fit Center  495 is at  -1.439703  0.390458  2.777662
      ESP Fit Center  496 is at  -1.644330  0.036035  2.777662
      ESP Fit Center  497 is at  -1.715396 -0.367000  2.777662
      ESP Fit Center  498 is at  -1.644330 -0.770035  2.777662
      ESP Fit Center  499 is at  -1.439703 -1.124458  2.777662
      ESP Fit Center  500 is at  -1.126198 -1.387521  2.777662
      ESP Fit Center  501 is at  -0.741626 -1.527493  2.777662
      ESP Fit Center  502 is at  -0.332374 -1.527493  2.777662
      ESP Fit Center  503 is at   0.052198 -1.387521  2.777662
      ESP Fit Center  504 is at   0.365703 -1.124458  2.777662
      ESP Fit Center  505 is at   0.570330 -0.770035  2.777662
      ESP Fit Center  506 is at   0.940662 -0.367000  2.478396
      ESP Fit Center  507 is at   0.880806  0.049305  2.478396
      ESP Fit Center  508 is at   0.706088  0.431884  2.478396
      ESP Fit Center  509 is at   0.430662  0.749742  2.478396
      ESP Fit Center  510 is at   0.076843  0.977128  2.478396
      ESP Fit Center  511 is at  -0.326707  1.095621  2.478396
      ESP Fit Center  512 is at  -0.747293  1.095621  2.478396
      ESP Fit Center  513 is at  -1.150843  0.977128  2.478396
      ESP Fit Center  514 is at  -1.504662  0.749742  2.478396
      ESP Fit Center  515 is at  -1.780088  0.431884  2.478396
      ESP Fit Center  516 is at  -1.954806  0.049305  2.478396
      ESP Fit Center  517 is at  -2.014662 -0.367000  2.478396
      ESP Fit Center  518 is at  -1.954806 -0.783305  2.478396
      ESP Fit Center  519 is at  -1.780088 -1.165884  2.478396
      ESP Fit Center  520 is at  -1.504662 -1.483742  2.478396
      ESP Fit Center  521 is at  -1.150843 -1.711128  2.478396
      ESP Fit Center  522 is at  -0.747293 -1.829621  2.478396
      ESP Fit Center  523 is at  -0.326707 -1.829621  2.478396
      ESP Fit Center  524 is at   0.076843 -1.711128  2.478396
      ESP Fit Center  525 is at   0.430662 -1.483742  2.478396
      ESP Fit Center  526 is at   0.706088 -1.165884  2.478396
      ESP Fit Center  527 is at   0.880806 -0.783305  2.478396
      ESP Fit Center  528 is at   1.165831 -0.367000  2.120040
      ESP Fit Center  529 is at   1.116350  0.040514  2.120040
      ESP Fit Center  530 is at   0.970782  0.424345  2.120040
      ESP Fit Center  531 is at   0.737587  0.762186  2.120040
      ESP Fit Center  532 is at   0.430318  1.034403  2.120040
      ESP Fit Center  533 is at   0.066832  1.225175  2.120040
      ESP Fit Center  534 is at  -0.331746  1.323416  2.120040
      ESP Fit Center  535 is at  -0.742254  1.323416  2.120040
      ESP Fit Center  536 is at  -1.140832  1.225175  2.120040
      ESP Fit Center  537 is at  -1.504318  1.034403  2.120040
      ESP Fit Center  538 is at  -1.811587  0.762186  2.120040
      ESP Fit Center  539 is at  -2.044782  0.424345  2.120040
      ESP Fit Center  540 is at  -2.190350  0.040514  2.120040
      ESP Fit Center  541 is at  -2.239831 -0.367000  2.120040
      ESP Fit Center  542 is at  -2.190350 -0.774514  2.120040
      ESP Fit Center  543 is at  -2.044782 -1.158345  2.120040
      ESP Fit Center  544 is at  -1.811587 -1.496186  2.120040
      ESP Fit Center  545 is at  -1.504318 -1.768403  2.120040
      ESP Fit Center  546 is at  -1.140832 -1.959175  2.120040
      ESP Fit Center  547 is at  -0.742254 -2.057416  2.120040
      ESP Fit Center  548 is at  -0.331746 -2.057416  2.120040
      ESP Fit Center  549 is at   0.066832 -1.959175  2.120040
      ESP Fit Center  550 is at   0.430318 -1.768403  2.120040
      ESP Fit Center  551 is at   0.737587 -1.496186  2.120040
      ESP Fit Center  552 is at   0.970782 -1.158345  2.120040
      ESP Fit Center  553 is at   1.116350 -0.774514  2.120040
      ESP Fit Center  554 is at   0.611851  1.073613  1.720565
      ESP Fit Center  555 is at   0.262480  1.293138  1.720565
      ESP Fit Center  556 is at  -0.126980  1.429416  1.720565
      ESP Fit Center  557 is at  -0.537000  1.475614  1.720565
      ESP Fit Center  558 is at  -0.947020  1.429416  1.720565
      ESP Fit Center  559 is at  -1.336480  1.293138  1.720565
      ESP Fit Center  560 is at  -1.685851  1.073613  1.720565
      ESP Fit Center  561 is at  -1.977613  0.781851  1.720565
      ESP Fit Center  562 is at  -2.197138  0.432480  1.720565
      ESP Fit Center  563 is at  -2.333416  0.043020  1.720565
      ESP Fit Center  564 is at  -2.379614 -0.367000  1.720565
      ESP Fit Center  565 is at  -2.333416 -0.777020  1.720565
      ESP Fit Center  566 is at  -2.197138 -1.166480  1.720565
      ESP Fit Center  567 is at  -1.977613 -1.515851  1.720565
      ESP Fit Center  568 is at  -1.685851 -1.807613  1.720565
      ESP Fit Center  569 is at  -1.336480 -2.027138  1.720565
      ESP Fit Center  570 is at  -0.947020 -2.163416  1.720565
      ESP Fit Center  571 is at  -0.537000 -2.209614  1.720565
      ESP Fit Center  572 is at  -0.126980 -2.163416  1.720565
      ESP Fit Center  573 is at   0.262480 -2.027138  1.720565
      ESP Fit Center  574 is at   0.611851 -1.807613  1.720565
      ESP Fit Center  575 is at   0.903613 -1.515851  1.720565
      ESP Fit Center  576 is at   1.123138 -1.166480  1.720565
      ESP Fit Center  577 is at   1.259416 -0.777020  1.720565
      ESP Fit Center  578 is at  -1.597644  1.197332  1.300000
      ESP Fit Center  579 is at  -1.909131  0.932752  1.300000
      ESP Fit Center  580 is at  -2.156460  0.607397  1.300000
      ESP Fit Center  581 is at  -2.328064  0.236480  1.300000
      ESP Fit Center  582 is at  -2.415921 -0.162655  1.300000
      ESP Fit Center  583 is at  -2.415921 -0.571345  1.300000
      ESP Fit Center  584 is at  -2.328064 -0.970480  1.300000
      ESP Fit Center  585 is at  -2.156460 -1.341397  1.300000
      ESP Fit Center  586 is at  -1.909131 -1.666752  1.300000
      ESP Fit Center  587 is at  -1.597644 -1.931332  1.300000
      ESP Fit Center  588 is at  -1.236561 -2.122766  1.300000
      ESP Fit Center  589 is at  -0.842768 -2.232102  1.300000
      ESP Fit Center  590 is at  -0.434677 -2.254228  1.300000
      ESP Fit Center  591 is at  -0.031371 -2.188109  1.300000
      ESP Fit Center  592 is at   0.348292 -2.036838  1.300000
      ESP Fit Center  593 is at   0.686560 -1.807486  1.300000
      ESP Fit Center  594 is at   0.967616 -1.510779  1.300000
      ESP Fit Center  595 is at  -1.977613  0.781851  0.879435
      ESP Fit Center  596 is at  -2.197138  0.432480  0.879435
      ESP Fit Center  597 is at  -2.333416  0.043020  0.879435
      ESP Fit Center  598 is at  -2.379614 -0.367000  0.879435
      ESP Fit Center  599 is at  -2.333416 -0.777020  0.879435
      ESP Fit Center  600 is at  -2.197138 -1.166480  0.879435
      ESP Fit Center  601 is at  -1.977613 -1.515851  0.879435
      ESP Fit Center  602 is at  -1.685851 -1.807613  0.879435
      ESP Fit Center  603 is at  -1.336480 -2.027138  0.879435
      ESP Fit Center  604 is at  -0.947020 -2.163416  0.879435
      ESP Fit Center  605 is at  -0.537000 -2.209614  0.879435
      ESP Fit Center  606 is at  -0.126980 -2.163416  0.879435
      ESP Fit Center  607 is at   0.262480 -2.027138  0.879435
      ESP Fit Center  608 is at   0.611851 -1.807613  0.879435
      ESP Fit Center  609 is at  -2.190350  0.040514  0.479960
      ESP Fit Center  610 is at  -2.239831 -0.367000  0.479960
      ESP Fit Center  611 is at  -2.190350 -0.774514  0.479960
      ESP Fit Center  612 is at  -2.044782 -1.158345  0.479960
      ESP Fit Center  613 is at  -1.811587 -1.496186  0.479960
      ESP Fit Center  614 is at  -1.504318 -1.768403  0.479960
      ESP Fit Center  615 is at  -1.140832 -1.959175  0.479960
      ESP Fit Center  616 is at  -2.014662 -0.367000  0.121604
      ESP Fit Center  617 is at  -1.954806 -0.783305  0.121604
      ESP Fit Center  618 is at   0.321492  1.823273  1.398112
      ESP Fit Center  619 is at   1.098541 -1.762446  1.034113
      ESP Fit Center  620 is at   0.926972 -2.029785  0.634898
      ESP Fit Center  621 is at  -2.270769 -0.424480 -0.214063
      ESP Fit Center  622 is at   0.935587  0.785051 -1.972504
      ESP Fit Center  623 is at  -1.155793 -2.308799  0.572351
      ESP Fit Center  624 is at  -0.786479 -2.500163  0.572351
      ESP Fit Center  625 is at  -0.379230 -2.584790  0.572351
      ESP Fit Center  626 is at   0.035749 -2.556405  0.572351
      ESP Fit Center  627 is at   0.427681 -2.417112  0.572351
      ESP Fit Center  628 is at   0.767498 -2.177243  0.572351
      ESP Fit Center  629 is at  -1.962664 -1.675259  0.245032
      ESP Fit Center  630 is at  -1.775515 -2.047904  0.245032
      ESP Fit Center  631 is at  -1.507472 -2.367344  0.245032
      ESP Fit Center  632 is at  -1.172987 -2.616359  0.245032
      ESP Fit Center  633 is at  -0.790091 -2.781525  0.245032
      ESP Fit Center  634 is at  -0.379427 -2.853936  0.245032
      ESP Fit Center  635 is at   0.036868 -2.829689  0.245032
      ESP Fit Center  636 is at   0.436349 -2.710093  0.245032
      ESP Fit Center  637 is at   0.797482 -2.501593  0.245032
      ESP Fit Center  638 is at   1.100796 -2.215430  0.245032
      ESP Fit Center  639 is at  -2.226972 -0.646096 -0.128404
      ESP Fit Center  640 is at  -2.270580 -1.061000 -0.128404
      ESP Fit Center  641 is at  -2.226972 -1.475904 -0.128404
      ESP Fit Center  642 is at  -2.098053 -1.872675 -0.128404
      ESP Fit Center  643 is at  -1.889458 -2.233972 -0.128404
      ESP Fit Center  644 is at  -1.610304 -2.544005 -0.128404
      ESP Fit Center  645 is at  -1.272790 -2.789223 -0.128404
      ESP Fit Center  646 is at  -0.891668 -2.958909 -0.128404
      ESP Fit Center  647 is at  -0.483595 -3.045648 -0.128404
      ESP Fit Center  648 is at  -0.066405 -3.045648 -0.128404
      ESP Fit Center  649 is at   0.341668 -2.958909 -0.128404
      ESP Fit Center  650 is at   0.722790 -2.789223 -0.128404
      ESP Fit Center  651 is at   1.060304 -2.544005 -0.128404
      ESP Fit Center  652 is at   1.339458 -2.233972 -0.128404
      ESP Fit Center  653 is at  -2.352790 -0.647702 -0.533605
      ESP Fit Center  654 is at  -2.393496 -1.061000 -0.533605
      ESP Fit Center  655 is at  -2.352790 -1.474298 -0.533605
      ESP Fit Center  656 is at  -2.232235 -1.871713 -0.533605
      ESP Fit Center  657 is at  -2.036465 -2.237973 -0.533605
      ESP Fit Center  658 is at  -1.773003 -2.559003 -0.533605
      ESP Fit Center  659 is at  -1.451973 -2.822465 -0.533605
      ESP Fit Center  660 is at  -1.085713 -3.018235 -0.533605
      ESP Fit Center  661 is at  -0.688298 -3.138790 -0.533605
      ESP Fit Center  662 is at  -0.275000 -3.179496 -0.533605
      ESP Fit Center  663 is at   0.138298 -3.138790 -0.533605
      ESP Fit Center  664 is at   0.535713 -3.018235 -0.533605
      ESP Fit Center  665 is at   0.901973 -2.822465 -0.533605
      ESP Fit Center  666 is at   1.223003 -2.559003 -0.533605
      ESP Fit Center  667 is at   1.486465 -2.237973 -0.533605
      ESP Fit Center  668 is at   1.682235 -1.871713 -0.533605
      ESP Fit Center  669 is at  -2.347505 -0.452458 -0.955000
      ESP Fit Center  670 is at  -2.425219 -0.855679 -0.955000
      ESP Fit Center  671 is at  -2.425219 -1.266321 -0.955000
      ESP Fit Center  672 is at  -2.347505 -1.669542 -0.955000
      ESP Fit Center  673 is at  -2.194885 -2.050769 -0.955000
      ESP Fit Center  674 is at  -1.972875 -2.396223 -0.955000
      ESP Fit Center  675 is at  -1.689499 -2.693419 -0.955000
      ESP Fit Center  676 is at  -1.355000 -2.931615 -0.955000
      ESP Fit Center  677 is at  -0.981467 -3.102202 -0.955000
      ESP Fit Center  678 is at  -0.582400 -3.199014 -0.955000
      ESP Fit Center  679 is at  -0.172223 -3.218553 -0.955000
      ESP Fit Center  680 is at   0.234239 -3.160113 -0.955000
      ESP Fit Center  681 is at   0.622296 -3.025805 -0.955000
      ESP Fit Center  682 is at   0.977923 -2.820484 -0.955000
      ESP Fit Center  683 is at   1.288266 -2.551571 -0.955000
      ESP Fit Center  684 is at   1.542108 -2.228784 -0.955000
      ESP Fit Center  685 is at   1.730275 -1.863791 -0.955000
      ESP Fit Center  686 is at  -2.232235 -0.250287 -1.376395
      ESP Fit Center  687 is at  -2.352790 -0.647702 -1.376395
      ESP Fit Center  688 is at  -2.393496 -1.061000 -1.376395
      ESP Fit Center  689 is at  -2.352790 -1.474298 -1.376395
      ESP Fit Center  690 is at  -2.232235 -1.871713 -1.376395
      ESP Fit Center  691 is at  -2.036465 -2.237973 -1.376395
      ESP Fit Center  692 is at  -1.773003 -2.559003 -1.376395
      ESP Fit Center  693 is at  -1.451973 -2.822465 -1.376395
      ESP Fit Center  694 is at  -1.085713 -3.018235 -1.376395
      ESP Fit Center  695 is at  -0.688298 -3.138790 -1.376395
      ESP Fit Center  696 is at  -0.275000 -3.179496 -1.376395
      ESP Fit Center  697 is at   0.138298 -3.138790 -1.376395
      ESP Fit Center  698 is at   0.535713 -3.018235 -1.376395
      ESP Fit Center  699 is at   0.901973 -2.822465 -1.376395
      ESP Fit Center  700 is at   1.223003 -2.559003 -1.376395
      ESP Fit Center  701 is at   1.486465 -2.237973 -1.376395
      ESP Fit Center  702 is at   1.682235 -1.871713 -1.376395
      ESP Fit Center  703 is at   1.802790 -1.474298 -1.376395
      ESP Fit Center  704 is at   1.720580 -1.061000 -1.781596
      ESP Fit Center  705 is at  -2.098053 -0.249325 -1.781596
      ESP Fit Center  706 is at  -2.226972 -0.646096 -1.781596
      ESP Fit Center  707 is at  -2.270580 -1.061000 -1.781596
      ESP Fit Center  708 is at  -2.226972 -1.475904 -1.781596
      ESP Fit Center  709 is at  -2.098053 -1.872675 -1.781596
      ESP Fit Center  710 is at  -1.889458 -2.233972 -1.781596
      ESP Fit Center  711 is at  -1.610304 -2.544005 -1.781596
      ESP Fit Center  712 is at  -1.272790 -2.789223 -1.781596
      ESP Fit Center  713 is at  -0.891668 -2.958909 -1.781596
      ESP Fit Center  714 is at  -0.483595 -3.045648 -1.781596
      ESP Fit Center  715 is at  -0.066405 -3.045648 -1.781596
      ESP Fit Center  716 is at   0.341668 -2.958909 -1.781596
      ESP Fit Center  717 is at   0.722790 -2.789223 -1.781596
      ESP Fit Center  718 is at   1.060304 -2.544005 -1.781596
      ESP Fit Center  719 is at   1.339458 -2.233972 -1.781596
      ESP Fit Center  720 is at   1.548053 -1.872675 -1.781596
      ESP Fit Center  721 is at   1.676972 -1.475904 -1.781596
      ESP Fit Center  722 is at   1.520974 -1.061000 -2.155032
      ESP Fit Center  723 is at   1.472564 -0.646820 -2.155032
      ESP Fit Center  724 is at   1.329941 -0.254968 -2.155032
      ESP Fit Center  725 is at   1.100796  0.093430 -2.155032
      ESP Fit Center  726 is at   0.797482  0.379593 -2.155032
      ESP Fit Center  727 is at  -1.775515 -0.074096 -2.155032
      ESP Fit Center  728 is at  -1.962664 -0.446741 -2.155032
      ESP Fit Center  729 is at  -2.058831 -0.852500 -2.155032
      ESP Fit Center  730 is at  -2.058831 -1.269500 -2.155032
      ESP Fit Center  731 is at  -1.962664 -1.675259 -2.155032
      ESP Fit Center  732 is at  -1.775515 -2.047904 -2.155032
      ESP Fit Center  733 is at  -1.507472 -2.367344 -2.155032
      ESP Fit Center  734 is at  -1.172987 -2.616359 -2.155032
      ESP Fit Center  735 is at  -0.790091 -2.781525 -2.155032
      ESP Fit Center  736 is at  -0.379427 -2.853936 -2.155032
      ESP Fit Center  737 is at   0.036868 -2.829689 -2.155032
      ESP Fit Center  738 is at   0.436349 -2.710093 -2.155032
      ESP Fit Center  739 is at   0.797482 -2.501593 -2.155032
      ESP Fit Center  740 is at   1.100796 -2.215430 -2.155032
      ESP Fit Center  741 is at   1.329941 -1.867032 -2.155032
      ESP Fit Center  742 is at   1.472564 -1.475180 -2.155032
      ESP Fit Center  743 is at   1.252351 -1.061000 -2.482351
      ESP Fit Center  744 is at   1.195712 -0.648926 -2.482351
      ESP Fit Center  745 is at   1.029998 -0.267413 -2.482351
      ESP Fit Center  746 is at   0.767498  0.055243 -2.482351
      ESP Fit Center  747 is at   0.427681  0.295112 -2.482351
      ESP Fit Center  748 is at   0.035749  0.434405 -2.482351
      ESP Fit Center  749 is at  -0.379230  0.462790 -2.482351
      ESP Fit Center  750 is at  -0.786479  0.378163 -2.482351
      ESP Fit Center  751 is at  -1.155793  0.186799 -2.482351
      ESP Fit Center  752 is at  -1.459783 -0.097107 -2.482351
      ESP Fit Center  753 is at  -1.675903 -0.452502 -2.482351
      ESP Fit Center  754 is at  -1.788125 -0.853026 -2.482351
      ESP Fit Center  755 is at  -1.788125 -1.268974 -2.482351
      ESP Fit Center  756 is at  -1.675903 -1.669498 -2.482351
      ESP Fit Center  757 is at  -1.459783 -2.024893 -2.482351
      ESP Fit Center  758 is at  -1.155793 -2.308799 -2.482351
      ESP Fit Center  759 is at  -0.786479 -2.500163 -2.482351
      ESP Fit Center  760 is at  -0.379230 -2.584790 -2.482351
      ESP Fit Center  761 is at   0.035749 -2.556405 -2.482351
      ESP Fit Center  762 is at   0.427681 -2.417112 -2.482351
      ESP Fit Center  763 is at   0.767498 -2.177243 -2.482351
      ESP Fit Center  764 is at   1.029998 -1.854587 -2.482351
      ESP Fit Center  765 is at   1.195712 -1.473074 -2.482351
      ESP Fit Center  766 is at   0.925032 -1.061000 -2.750974
      ESP Fit Center  767 is at   0.852661 -0.650565 -2.750974
      ESP Fit Center  768 is at   0.644278 -0.289634 -2.750974
      ESP Fit Center  769 is at   0.325016 -0.021742 -2.750974
      ESP Fit Center  770 is at  -0.066617  0.120801 -2.750974
      ESP Fit Center  771 is at  -0.483383  0.120801 -2.750974
      ESP Fit Center  772 is at  -0.875016 -0.021742 -2.750974
      ESP Fit Center  773 is at  -1.194278 -0.289634 -2.750974
      ESP Fit Center  774 is at  -1.402661 -0.650565 -2.750974
      ESP Fit Center  775 is at  -1.475032 -1.061000 -2.750974
      ESP Fit Center  776 is at  -1.402661 -1.471435 -2.750974
      ESP Fit Center  777 is at  -1.194278 -1.832366 -2.750974
      ESP Fit Center  778 is at  -0.875016 -2.100258 -2.750974
      ESP Fit Center  779 is at  -0.483383 -2.242801 -2.750974
      ESP Fit Center  780 is at  -0.066617 -2.242801 -2.750974
      ESP Fit Center  781 is at   0.325016 -2.100258 -2.750974
      ESP Fit Center  782 is at   0.644278 -1.832366 -2.750974
      ESP Fit Center  783 is at   0.852661 -1.471435 -2.750974
      ESP Fit Center  784 is at   0.551596 -1.061000 -2.950580
      ESP Fit Center  785 is at   0.440853 -0.647702 -2.950580
      ESP Fit Center  786 is at   0.138298 -0.345147 -2.950580
      ESP Fit Center  787 is at  -0.275000 -0.234404 -2.950580
      ESP Fit Center  788 is at  -0.688298 -0.345147 -2.950580
      ESP Fit Center  789 is at  -0.990853 -0.647702 -2.950580
      ESP Fit Center  790 is at  -1.101596 -1.061000 -2.950580
      ESP Fit Center  791 is at  -0.990853 -1.474298 -2.950580
      ESP Fit Center  792 is at  -0.688298 -1.776853 -2.950580
      ESP Fit Center  793 is at  -0.275000 -1.887596 -2.950580
      ESP Fit Center  794 is at   0.138298 -1.776853 -2.950580
      ESP Fit Center  795 is at   0.440853 -1.474298 -2.950580
      ESP Fit Center  796 is at   0.146395 -1.061000 -3.073496
      ESP Fit Center  797 is at  -0.064302 -0.696061 -3.073496
      ESP Fit Center  798 is at  -0.485698 -0.696061 -3.073496
      ESP Fit Center  799 is at  -0.696395 -1.061000 -3.073496
      ESP Fit Center  800 is at  -0.485698 -1.425939 -3.073496
      ESP Fit Center  801 is at  -0.064302 -1.425939 -3.073496
      ESP Fit Center  802 is at  -0.275000 -1.061000 -3.115000
      ESP Fit Center  803 is at  -0.211702  1.948853  1.543580
      ESP Fit Center  804 is at  -0.625000  2.059596  1.543580
      ESP Fit Center  805 is at  -1.038298  1.948853  1.543580
      ESP Fit Center  806 is at  -1.340853  1.646298  1.543580
      ESP Fit Center  807 is at   0.294278  2.004366  1.343974
      ESP Fit Center  808 is at  -0.024984  2.272258  1.343974
      ESP Fit Center  809 is at  -0.416617  2.414801  1.343974
      ESP Fit Center  810 is at  -0.833383  2.414801  1.343974
      ESP Fit Center  811 is at  -1.225016  2.272258  1.343974
      ESP Fit Center  812 is at  -1.544278  2.004366  1.343974
      ESP Fit Center  813 is at  -1.752661  1.643435  1.343974
      ESP Fit Center  814 is at   0.679998  2.026587  1.075351
      ESP Fit Center  815 is at   0.417498  2.349243  1.075351
      ESP Fit Center  816 is at   0.077681  2.589112  1.075351
      ESP Fit Center  817 is at  -0.314251  2.728405  1.075351
      ESP Fit Center  818 is at  -0.729230  2.756790  1.075351
      ESP Fit Center  819 is at  -1.136479  2.672163  1.075351
      ESP Fit Center  820 is at  -1.505793  2.480799  1.075351
      ESP Fit Center  821 is at  -1.809783  2.196893  1.075351
      ESP Fit Center  822 is at  -2.025903  1.841498  1.075351
      ESP Fit Center  823 is at  -2.138125  1.440974  1.075351
      ESP Fit Center  824 is at   0.750796  2.387430  0.748032
      ESP Fit Center  825 is at   0.447482  2.673593  0.748032
      ESP Fit Center  826 is at   0.086349  2.882093  0.748032
      ESP Fit Center  827 is at  -0.313132  3.001689  0.748032
      ESP Fit Center  828 is at  -0.729427  3.025936  0.748032
      ESP Fit Center  829 is at  -1.140091  2.953525  0.748032
      ESP Fit Center  830 is at  -1.522987  2.788359  0.748032
      ESP Fit Center  831 is at  -1.857472  2.539344  0.748032
      ESP Fit Center  832 is at  -2.125515  2.219904  0.748032
      ESP Fit Center  833 is at  -2.312664  1.847259  0.748032
      ESP Fit Center  834 is at  -2.408831  1.441500  0.748032
      ESP Fit Center  835 is at  -2.408831  1.024500  0.748032
      ESP Fit Center  836 is at   0.989458  2.405972  0.374596
      ESP Fit Center  837 is at   0.710304  2.716005  0.374596
      ESP Fit Center  838 is at   0.372790  2.961223  0.374596
      ESP Fit Center  839 is at  -0.008332  3.130909  0.374596
      ESP Fit Center  840 is at  -0.416405  3.217648  0.374596
      ESP Fit Center  841 is at  -0.833595  3.217648  0.374596
      ESP Fit Center  842 is at  -1.241668  3.130909  0.374596
      ESP Fit Center  843 is at  -1.622790  2.961223  0.374596
      ESP Fit Center  844 is at  -1.960304  2.716005  0.374596
      ESP Fit Center  845 is at  -2.239458  2.405972  0.374596
      ESP Fit Center  846 is at  -2.448053  2.044675  0.374596
      ESP Fit Center  847 is at  -2.576972  1.647904  0.374596
      ESP Fit Center  848 is at  -2.620580  1.233000  0.374596
      ESP Fit Center  849 is at  -2.576972  0.818096  0.374596
      ESP Fit Center  850 is at  -2.448053  0.421325  0.374596
      ESP Fit Center  851 is at   1.136465  2.409973 -0.030605
      ESP Fit Center  852 is at   0.873003  2.731003 -0.030605
      ESP Fit Center  853 is at   0.551973  2.994465 -0.030605
      ESP Fit Center  854 is at   0.185713  3.190235 -0.030605
      ESP Fit Center  855 is at  -0.211702  3.310790 -0.030605
      ESP Fit Center  856 is at  -0.625000  3.351496 -0.030605
      ESP Fit Center  857 is at  -1.038298  3.310790 -0.030605
      ESP Fit Center  858 is at  -1.435713  3.190235 -0.030605
      ESP Fit Center  859 is at  -1.801973  2.994465 -0.030605
      ESP Fit Center  860 is at  -2.123003  2.731003 -0.030605
      ESP Fit Center  861 is at  -2.386465  2.409973 -0.030605
      ESP Fit Center  862 is at  -2.582235  2.043713 -0.030605
      ESP Fit Center  863 is at  -2.702790  1.646298 -0.030605
      ESP Fit Center  864 is at  -2.743496  1.233000 -0.030605
      ESP Fit Center  865 is at  -2.702790  0.819702 -0.030605
      ESP Fit Center  866 is at  -2.582235  0.422287 -0.030605
      ESP Fit Center  867 is at  -2.386465  0.056027 -0.030605
      ESP Fit Center  868 is at   1.192108  2.400784 -0.452000
      ESP Fit Center  869 is at   0.938266  2.723571 -0.452000
      ESP Fit Center  870 is at   0.627923  2.992484 -0.452000
      ESP Fit Center  871 is at   0.272296  3.197805 -0.452000
      ESP Fit Center  872 is at  -0.115761  3.332113 -0.452000
      ESP Fit Center  873 is at  -0.522223  3.390553 -0.452000
      ESP Fit Center  874 is at  -0.932400  3.371014 -0.452000
      ESP Fit Center  875 is at  -1.331467  3.274202 -0.452000
      ESP Fit Center  876 is at  -1.705000  3.103615 -0.452000
      ESP Fit Center  877 is at  -2.039499  2.865419 -0.452000
      ESP Fit Center  878 is at  -2.322875  2.568223 -0.452000
      ESP Fit Center  879 is at  -2.544885  2.222769 -0.452000
      ESP Fit Center  880 is at  -2.697505  1.841542 -0.452000
      ESP Fit Center  881 is at  -2.775219  1.438321 -0.452000
      ESP Fit Center  882 is at  -2.775219  1.027679 -0.452000
      ESP Fit Center  883 is at  -2.697505  0.624458 -0.452000
      ESP Fit Center  884 is at  -2.544885  0.243231 -0.452000
      ESP Fit Center  885 is at  -2.322875 -0.102223 -0.452000
      ESP Fit Center  886 is at   1.136465  2.409973 -0.873395
      ESP Fit Center  887 is at   0.873003  2.731003 -0.873395
      ESP Fit Center  888 is at   0.551973  2.994465 -0.873395
      ESP Fit Center  889 is at   0.185713  3.190235 -0.873395
      ESP Fit Center  890 is at  -0.211702  3.310790 -0.873395
      ESP Fit Center  891 is at  -0.625000  3.351496 -0.873395
      ESP Fit Center  892 is at  -1.038298  3.310790 -0.873395
      ESP Fit Center  893 is at  -1.435713  3.190235 -0.873395
      ESP Fit Center  894 is at  -1.801973  2.994465 -0.873395
      ESP Fit Center  895 is at  -2.123003  2.731003 -0.873395
      ESP Fit Center  896 is at  -2.386465  2.409973 -0.873395
      ESP Fit Center  897 is at  -2.582235  2.043713 -0.873395
      ESP Fit Center  898 is at  -2.702790  1.646298 -0.873395
      ESP Fit Center  899 is at  -2.743496  1.233000 -0.873395
      ESP Fit Center  900 is at  -2.702790  0.819702 -0.873395
      ESP Fit Center  901 is at  -2.582235  0.422287 -0.873395
      ESP Fit Center  902 is at  -2.386465  0.056027 -0.873395
      ESP Fit Center  903 is at   1.198053  2.044675 -1.278596
      ESP Fit Center  904 is at   0.989458  2.405972 -1.278596
      ESP Fit Center  905 is at   0.710304  2.716005 -1.278596
      ESP Fit Center  906 is at   0.372790  2.961223 -1.278596
      ESP Fit Center  907 is at  -0.008332  3.130909 -1.278596
      ESP Fit Center  908 is at  -0.416405  3.217648 -1.278596
      ESP Fit Center  909 is at  -0.833595  3.217648 -1.278596
      ESP Fit Center  910 is at  -1.241668  3.130909 -1.278596
      ESP Fit Center  911 is at  -1.622790  2.961223 -1.278596
      ESP Fit Center  912 is at  -1.960304  2.716005 -1.278596
      ESP Fit Center  913 is at  -2.239458  2.405972 -1.278596
      ESP Fit Center  914 is at  -2.448053  2.044675 -1.278596
      ESP Fit Center  915 is at  -2.576972  1.647904 -1.278596
      ESP Fit Center  916 is at  -2.620580  1.233000 -1.278596
      ESP Fit Center  917 is at  -2.576972  0.818096 -1.278596
      ESP Fit Center  918 is at  -2.448053  0.421325 -1.278596
      ESP Fit Center  919 is at  -2.239458  0.060028 -1.278596
      ESP Fit Center  920 is at   1.122564  1.647180 -1.652032
      ESP Fit Center  921 is at   0.979941  2.039032 -1.652032
      ESP Fit Center  922 is at   0.750796  2.387430 -1.652032
      ESP Fit Center  923 is at   0.447482  2.673593 -1.652032
      ESP Fit Center  924 is at   0.086349  2.882093 -1.652032
      ESP Fit Center  925 is at  -0.313132  3.001689 -1.652032
      ESP Fit Center  926 is at  -0.729427  3.025936 -1.652032
      ESP Fit Center  927 is at  -1.140091  2.953525 -1.652032
      ESP Fit Center  928 is at  -1.522987  2.788359 -1.652032
      ESP Fit Center  929 is at  -1.857472  2.539344 -1.652032
      ESP Fit Center  930 is at  -2.125515  2.219904 -1.652032
      ESP Fit Center  931 is at  -2.312664  1.847259 -1.652032
      ESP Fit Center  932 is at  -2.408831  1.441500 -1.652032
      ESP Fit Center  933 is at  -2.408831  1.024500 -1.652032
      ESP Fit Center  934 is at  -2.312664  0.618741 -1.652032
      ESP Fit Center  935 is at  -2.125515  0.246096 -1.652032
      ESP Fit Center  936 is at   0.902351  1.233000 -1.979351
      ESP Fit Center  937 is at   0.845712  1.645074 -1.979351
      ESP Fit Center  938 is at   0.679998  2.026587 -1.979351
      ESP Fit Center  939 is at   0.417498  2.349243 -1.979351
      ESP Fit Center  940 is at   0.077681  2.589112 -1.979351
      ESP Fit Center  941 is at  -0.314251  2.728405 -1.979351
      ESP Fit Center  942 is at  -0.729230  2.756790 -1.979351
      ESP Fit Center  943 is at  -1.136479  2.672163 -1.979351
      ESP Fit Center  944 is at  -1.505793  2.480799 -1.979351
      ESP Fit Center  945 is at  -1.809783  2.196893 -1.979351
      ESP Fit Center  946 is at  -2.025903  1.841498 -1.979351
      ESP Fit Center  947 is at  -2.138125  1.440974 -1.979351
      ESP Fit Center  948 is at  -2.138125  1.025026 -1.979351
      ESP Fit Center  949 is at  -2.025903  0.624502 -1.979351
      ESP Fit Center  950 is at  -1.809783  0.269107 -1.979351
[...]
 2327 Fit      -0.145416
 2328 Fit      -0.148047
 2329 Fit      -0.150354
 2330 Fit      -0.152190
 2331 Fit      -0.153289
 2332 Fit      -0.153137
 2333 Fit      -0.151428
 2334 Fit      -0.148517
 2335 Fit      -0.145176
 2336 Fit      -0.142058
 2337 Fit      -0.139515
 2338 Fit      -0.137693
 2339 Fit      -0.136648
 2340 Fit      -0.136401
 2341 Fit      -0.136950
 2342 Fit      -0.138259
 2343 Fit      -0.140234
 2344 Fit      -0.142708
 2345 Fit      -0.143705
 2346 Fit      -0.146210
 2347 Fit      -0.148017
 2348 Fit      -0.148538
 2349 Fit      -0.147298
 2350 Fit      -0.144645
 2351 Fit      -0.141649
 2352 Fit      -0.139243
 2353 Fit      -0.137913
 2354 Fit      -0.137832
 2355 Fit      -0.138971
 2356 Fit      -0.141086
 2357 Fit      -0.142547
 2358 Fit      -0.144619
 2359 Fit      -0.144188
 2360 Fit      -0.141571
 2361 Fit      -0.139639
 2362 Fit      -0.140150
 2363 Fit      -0.141856
 2364 Fit      -0.163662
 2365 Fit      -0.159617
 2366 Fit      -0.157961
 2367 Fit      -0.158570
 2368 Fit      -0.164772
 2369 Fit      -0.158953
 2370 Fit      -0.155090
 2371 Fit      -0.152818
 2372 Fit      -0.151932
 2373 Fit      -0.152361
 2374 Fit      -0.154159
 2375 Fit      -0.157524
 2376 Fit      -0.159049
 2377 Fit      -0.154045
 2378 Fit      -0.150657
 2379 Fit      -0.148536
 2380 Fit      -0.147489
 2381 Fit      -0.147427
 2382 Fit      -0.148337
 2383 Fit      -0.150282
 2384 Fit      -0.153407
 2385 Fit      -0.157993
 2386 Fit      -0.161411
 2387 Fit      -0.155241
 2388 Fit      -0.150843
 2389 Fit      -0.147733
 2390 Fit      -0.145620
 2391 Fit      -0.144336
 2392 Fit      -0.143790
 2393 Fit      -0.143940
 2394 Fit      -0.144783
 2395 Fit      -0.146347
 2396 Fit      -0.148703
 2397 Fit      -0.151978
 2398 Fit      -0.156385
 2399 Fit      -0.155734
 2400 Fit      -0.150706
 2401 Fit      -0.147063
 2402 Fit      -0.144443
 2403 Fit      -0.142632
 2404 Fit      -0.141506
 2405 Fit      -0.140996
 2406 Fit      -0.141066
 2407 Fit      -0.141705
 2408 Fit      -0.142923
 2409 Fit      -0.144752
 2410 Fit      -0.147251
 2411 Fit      -0.150526
 2412 Fit      -0.154747
 2413 Fit      -0.160179
 2414 Fit      -0.155736
 2415 Fit      -0.150351
 2416 Fit      -0.146407
 2417 Fit      -0.143503
 2418 Fit      -0.141402
 2419 Fit      -0.139962
 2420 Fit      -0.139103
 2421 Fit      -0.138776
 2422 Fit      -0.138958
 2423 Fit      -0.139640
 2424 Fit      -0.140827
 2425 Fit      -0.142537
 2426 Fit      -0.144809
 2427 Fit      -0.147713
 2428 Fit      -0.151360
 2429 Fit      -0.155922
 2430 Fit      -0.161656
 2431 Fit      -0.155737
 2432 Fit      -0.150224
 2433 Fit      -0.146122
 2434 Fit      -0.143038
 2435 Fit      -0.140732
 2436 Fit      -0.139059
 2437 Fit      -0.137932
 2438 Fit      -0.137300
 2439 Fit      -0.137131
 2440 Fit      -0.137409
 2441 Fit      -0.138128
 2442 Fit      -0.139287
 2443 Fit      -0.140900
 2444 Fit      -0.142992
 2445 Fit      -0.145612
 2446 Fit      -0.148840
 2447 Fit      -0.152800
 2448 Fit      -0.157682
 2449 Fit      -0.163761
 2450 Fit      -0.154788
 2451 Fit      -0.149479
 2452 Fit      -0.145459
 2453 Fit      -0.142385
 2454 Fit      -0.140042
 2455 Fit      -0.138298
 2456 Fit      -0.137071
 2457 Fit      -0.136312
 2458 Fit      -0.135991
 2459 Fit      -0.136089
 2460 Fit      -0.136598
 2461 Fit      -0.137513
 2462 Fit      -0.138837
 2463 Fit      -0.140585
 2464 Fit      -0.142786
 2465 Fit      -0.145493
 2466 Fit      -0.148795
 2467 Fit      -0.152832
 2468 Fit      -0.157828
 2469 Fit      -0.164136
 2470 Fit      -0.158675
 2471 Fit      -0.152347
 2472 Fit      -0.147547
 2473 Fit      -0.143860
 2474 Fit      -0.141015
 2475 Fit      -0.138844
 2476 Fit      -0.137239
 2477 Fit      -0.136136
 2478 Fit      -0.135495
 2479 Fit      -0.135292
 2480 Fit      -0.135513
 2481 Fit      -0.136149
 2482 Fit      -0.137200
 2483 Fit      -0.138670
 2484 Fit      -0.140580
 2485 Fit      -0.142970
 2486 Fit      -0.145914
 2487 Fit      -0.149536
 2488 Fit      -0.154049
 2489 Fit      -0.159805
 2490 Fit      -0.154946
 2491 Fit      -0.149533
 2492 Fit      -0.145339
 2493 Fit      -0.142080
 2494 Fit      -0.139565
 2495 Fit      -0.137671
 2496 Fit      -0.136321
 2497 Fit      -0.135469
 2498 Fit      -0.135087
 2499 Fit      -0.135160
 2500 Fit      -0.135677
 2501 Fit      -0.136636
 2502 Fit      -0.138044
 2503 Fit      -0.139920
 2504 Fit      -0.142309
 2505 Fit      -0.145296
 2506 Fit      -0.149035
 2507 Fit      -0.153787
 2508 Fit      -0.160010
 2509 Fit      -0.157528
 2510 Fit      -0.151783
 2511 Fit      -0.147218
 2512 Fit      -0.143609
 2513 Fit      -0.140781
 2514 Fit      -0.138611
 2515 Fit      -0.137020
 2516 Fit      -0.135956
 2517 Fit      -0.135390
 2518 Fit      -0.135305
 2519 Fit      -0.135692
 2520 Fit      -0.136549
 2521 Fit      -0.137882
 2522 Fit      -0.139716
 2523 Fit      -0.142098
 2524 Fit      -0.145128
 2525 Fit      -0.148977
 2526 Fit      -0.153948
 2527 Fit      -0.160565
 2528 Fit      -0.159198
 2529 Fit      -0.153505
 2530 Fit      -0.148792
 2531 Fit      -0.144974
 2532 Fit      -0.141939
 2533 Fit      -0.139590
 2534 Fit      -0.137856
 2535 Fit      -0.136692
 2536 Fit      -0.136071
 2537 Fit      -0.135979
 2538 Fit      -0.136410
 2539 Fit      -0.137367
 2540 Fit      -0.138864
 2541 Fit      -0.140942
 2542 Fit      -0.143679
 2543 Fit      -0.147223
 2544 Fit      -0.151832
 2545 Fit      -0.157946
 2546 Fit      -0.159997
 2547 Fit      -0.154429
 2548 Fit      -0.149626
 2549 Fit      -0.145660
 2550 Fit      -0.142506
 2551 Fit      -0.140111
 2552 Fit      -0.138427
 2553 Fit      -0.137424
 2554 Fit      -0.137085
 2555 Fit      -0.137406
 2556 Fit      -0.138396
 2557 Fit      -0.140083
 2558 Fit      -0.142529
 2559 Fit      -0.145865
 2560 Fit      -0.150328
 2561 Fit      -0.156322
 2562 Fit      -0.161286
 2563 Fit      -0.156028
 2564 Fit      -0.151298
 2565 Fit      -0.147253
 2566 Fit      -0.143977
 2567 Fit      -0.141492
 2568 Fit      -0.139795
 2569 Fit      -0.138880
 2570 Fit      -0.138747
 2571 Fit      -0.139409
 2572 Fit      -0.140895
 2573 Fit      -0.143269
 2574 Fit      -0.146657
 2575 Fit      -0.151281
 2576 Fit      -0.157470
 2577 Fit      -0.157905
 2578 Fit      -0.152817
 2579 Fit      -0.148436
 2580 Fit      -0.144952
 2581 Fit      -0.142494
 2582 Fit      -0.141132
 2583 Fit      -0.140911
 2584 Fit      -0.141873
 2585 Fit      -0.144085
 2586 Fit      -0.147666
 2587 Fit      -0.152795
 2588 Fit      -0.159573
 2589 Fit      -0.163567
 2590 Fit      -0.155392
 2591 Fit      -0.150382
 2592 Fit      -0.146482
 2593 Fit      -0.144157
 2594 Fit      -0.143688
 2595 Fit      -0.145229
 2596 Fit      -0.148855
 2597 Fit      -0.154429
 2598 Fit      -0.160811
 2599 Fit      -0.153393
 2600 Fit      -0.148682
 2601 Fit      -0.147212
 2602 Fit      -0.150199
 2603 Fit      -0.155710
 2604 Fit      -0.157488
 2605 Fit      -0.151698
 2606 Fit      -0.156884
 2607 Fit      -0.158896
 2608 Fit      -0.150859
 2609 Fit      -0.151105
 2610 Fit      -0.154083
 2611 Fit      -0.159988
 2612 Fit      -0.159203
 2613 Fit      -0.153430
 2614 Fit      -0.146315
 2615 Fit      -0.146233
 2616 Fit      -0.147585
 2617 Fit      -0.150416
 2618 Fit      -0.154882
 2619 Fit      -0.161335
 2620 Fit      -0.156275
 2621 Fit      -0.151081
 2622 Fit      -0.147878
 2623 Fit      -0.142835
 2624 Fit      -0.142679
 2625 Fit      -0.143421
 2626 Fit      -0.145074
 2627 Fit      -0.147685
 2628 Fit      -0.151356
 2629 Fit      -0.156271
 2630 Fit      -0.162747
 2631 Fit      -0.160003
 2632 Fit      -0.153648
 2633 Fit      -0.149126
 2634 Fit      -0.145965
 2635 Fit      -0.143910
 2636 Fit      -0.140166
 2637 Fit      -0.140008
 2638 Fit      -0.140568
 2639 Fit      -0.141856
 2640 Fit      -0.143902
 2641 Fit      -0.146768
 2642 Fit      -0.150563
 2643 Fit      -0.155453
 2644 Fit      -0.161682
 2645 Fit      -0.159371
 2646 Fit      -0.153150
 2647 Fit      -0.148556
 2648 Fit      -0.145150
 2649 Fit      -0.142690
 2650 Fit      -0.141050
 2651 Fit      -0.138152
 2652 Fit      -0.137991
 2653 Fit      -0.138385
 2654 Fit      -0.139343
 2655 Fit      -0.140882
 2656 Fit      -0.143041
 2657 Fit      -0.145887
 2658 Fit      -0.149523
 2659 Fit      -0.154100
 2660 Fit      -0.159817
 2661 Fit      -0.157478
 2662 Fit      -0.152047
 2663 Fit      -0.147842
 2664 Fit      -0.144563
 2665 Fit      -0.142033
 2666 Fit      -0.140154
 2667 Fit      -0.138869
 2668 Fit      -0.136700
 2669 Fit      -0.136543
 2670 Fit      -0.136882
 2671 Fit      -0.137725
 2672 Fit      -0.139091
 2673 Fit      -0.141013
 2674 Fit      -0.143551
 2675 Fit      -0.146801
 2676 Fit      -0.150914
 2677 Fit      -0.156104
 2678 Fit      -0.162651
 2679 Fit      -0.158771
 2680 Fit      -0.153169
 2681 Fit      -0.148738
 2682 Fit      -0.145199
 2683 Fit      -0.142376
 2684 Fit      -0.140164
 2685 Fit      -0.138500
 2686 Fit      -0.137350
 2687 Fit      -0.135755
 2688 Fit      -0.135600
 2689 Fit      -0.135912
 2690 Fit      -0.136703
 2691 Fit      -0.137991
 2692 Fit      -0.139809
 2693 Fit      -0.142220
 2694 Fit      -0.145322
 2695 Fit      -0.149279
 2696 Fit      -0.154340
 2697 Fit      -0.160871
 2698 Fit      -0.162359
 2699 Fit      -0.156058
 2700 Fit      -0.151037
 2701 Fit      -0.146996
 2702 Fit      -0.143730
 2703 Fit      -0.141103
 2704 Fit      -0.139031
 2705 Fit      -0.137464
 2706 Fit      -0.136376
 2707 Fit      -0.135287
 2708 Fit      -0.135128
 2709 Fit      -0.135409
 2710 Fit      -0.136140
 2711 Fit      -0.137340
 2712 Fit      -0.139042
 2713 Fit      -0.141306
 2714 Fit      -0.144228
 2715 Fit      -0.147970
 2716 Fit      -0.152786
 2717 Fit      -0.159080
 2718 Fit      -0.160213
 2719 Fit      -0.154369
 2720 Fit      -0.149686
 2721 Fit      -0.145902
 2722 Fit      -0.142833
 2723 Fit      -0.140357
 2724 Fit      -0.138400
 2725 Fit      -0.136917
 2726 Fit      -0.135882
 2727 Fit      -0.135277
 2728 Fit      -0.135112
 2729 Fit      -0.135379
 2730 Fit      -0.136087
 2731 Fit      -0.137257
 2732 Fit      -0.138925
 2733 Fit      -0.141153
 2734 Fit      -0.144043
 2735 Fit      -0.147766
 2736 Fit      -0.152599
 2737 Fit      -0.158988
 2738 Fit      -0.160455
 2739 Fit      -0.154427
 2740 Fit      -0.149662
 2741 Fit      -0.145848
 2742 Fit      -0.142775
 2743 Fit      -0.140310
 2744 Fit      -0.138366
 2745 Fit      -0.136896
 2746 Fit      -0.135871
 2747 Fit      -0.135717
 2748 Fit      -0.135544
 2749 Fit      -0.135834
 2750 Fit      -0.136598
 2751 Fit      -0.137862
 2752 Fit      -0.139672
 2753 Fit      -0.142108
 2754 Fit      -0.145306
 2755 Fit      -0.149493
 2756 Fit      -0.155043
 2757 Fit      -0.157269
 2758 Fit      -0.151667
 2759 Fit      -0.147306
 2760 Fit      -0.143868
 2761 Fit      -0.141152
 2762 Fit      -0.139037
 2763 Fit      -0.137449
 2764 Fit      -0.136350
 2765 Fit      -0.136606
 2766 Fit      -0.136423
 2767 Fit      -0.136756
 2768 Fit      -0.137620
 2769 Fit      -0.139051
 2770 Fit      -0.141112
 2771 Fit      -0.143917
 2772 Fit      -0.147658
 2773 Fit      -0.152664
 2774 Fit      -0.159488
 2775 Fit      -0.155392
 2776 Fit      -0.150016
 2777 Fit      -0.145910
 2778 Fit      -0.142746
 2779 Fit      -0.140325
 2780 Fit      -0.138533
 2781 Fit      -0.137305
 2782 Fit      -0.137951
 2783 Fit      -0.137752
 2784 Fit      -0.138125
 2785 Fit      -0.139089
 2786 Fit      -0.140689
 2787 Fit      -0.143009
 2788 Fit      -0.146198
 2789 Fit      -0.150512
 2790 Fit      -0.156380
 2791 Fit      -0.153524
 2792 Fit      -0.148598
 2793 Fit      -0.144897
 2794 Fit      -0.142122
 2795 Fit      -0.140098
 2796 Fit      -0.138725
 2797 Fit      -0.139771
 2798 Fit      -0.139553
 2799 Fit      -0.140003
 2800 Fit      -0.141145
 2801 Fit      -0.143042
 2802 Fit      -0.145814
 2803 Fit      -0.149672
 2804 Fit      -0.154972
 2805 Fit      -0.159043
 2806 Fit      -0.152687
 2807 Fit      -0.148065
 2808 Fit      -0.144689
 2809 Fit      -0.142276
 2810 Fit      -0.140665
 2811 Fit      -0.142105
 2812 Fit      -0.141874
 2813 Fit      -0.142537
 2814 Fit      -0.144136
 2815 Fit      -0.146783
 2816 Fit      -0.150697
 2817 Fit      -0.156252
 2818 Fit      -0.153458
 2819 Fit      -0.148675
 2820 Fit      -0.145379
 2821 Fit      -0.143247
 2822 Fit      -0.145020
 2823 Fit      -0.144776
 2824 Fit      -0.145666
 2825 Fit      -0.147747
 2826 Fit      -0.151174
 2827 Fit      -0.156222
 2828 Fit      -0.159783
 2829 Fit      -0.153422
 2830 Fit      -0.149139
 2831 Fit      -0.146431
 2832 Fit      -0.148627
 2833 Fit      -0.148446
 2834 Fit      -0.150045
 2835 Fit      -0.153516
 2836 Fit      -0.159061
 2837 Fit      -0.154798
 2838 Fit      -0.150655
 2839 Fit      -0.153095
 2840 Fit      -0.153222
 2841 Fit      -0.156456
 2842 Fit      -0.162625
 2843 Fit      -0.156259
 2844 Fit      -0.158678
 2845 Fit      -0.160338
 2846 Fit      -0.137045
 2847 Fit      -0.138462
 2848 Fit      -0.138483
 2849 Fit      -0.137312
 2850 Fit      -0.136135
 2851 Fit      -0.136058
 2852 Fit      -0.137197
 2853 Fit      -0.140447
 2854 Fit      -0.140848
 2855 Fit      -0.140394
 2856 Fit      -0.139348
 2857 Fit      -0.138020
 2858 Fit      -0.136700
 2859 Fit      -0.135699
 2860 Fit      -0.135268
 2861 Fit      -0.135516
 2862 Fit      -0.136401
 2863 Fit      -0.137757
 2864 Fit      -0.139268
 2865 Fit      -0.143099
 2866 Fit      -0.143671
 2867 Fit      -0.143524
 2868 Fit      -0.142815
 2869 Fit      -0.141770
 2870 Fit      -0.140539
 2871 Fit      -0.139202
 2872 Fit      -0.137858
 2873 Fit      -0.136646
 2874 Fit      -0.135715
 2875 Fit      -0.135174
 2876 Fit      -0.135075
 2877 Fit      -0.135420
 2878 Fit      -0.136177
 2879 Fit      -0.137299
 2880 Fit      -0.138720
 2881 Fit      -0.140323
 2882 Fit      -0.141888
 2883 Fit      -0.146582
 2884 Fit      -0.147312
 2885 Fit      -0.147333
 2886 Fit      -0.146756
 2887 Fit      -0.145813
 2888 Fit      -0.144705
 2889 Fit      -0.143517
 2890 Fit      -0.142254
 2891 Fit      -0.140915
 2892 Fit      -0.139544
 2893 Fit      -0.138230
 2894 Fit      -0.137076
 2895 Fit      -0.136172
 2896 Fit      -0.135576
 2897 Fit      -0.135315
 2898 Fit      -0.135389
 2899 Fit      -0.135779
 2900 Fit      -0.136461
 2901 Fit      -0.137415
 2902 Fit      -0.138628
 2903 Fit      -0.140090
 2904 Fit      -0.141762
 2905 Fit      -0.143545
 2906 Fit      -0.145242
 2907 Fit      -0.151163
 2908 Fit      -0.152144
 2909 Fit      -0.152232
 2910 Fit      -0.151537
 2911 Fit      -0.150372
 2912 Fit      -0.149056
 2913 Fit      -0.147760
 2914 Fit      -0.146490
 2915 Fit      -0.145170
 2916 Fit      -0.143747
 2917 Fit      -0.142234
 2918 Fit      -0.140709
 2919 Fit      -0.139278
 2920 Fit      -0.138039
 2921 Fit      -0.137065
 2922 Fit      -0.136399
 2923 Fit      -0.136055
 2924 Fit      -0.136024
 2925 Fit      -0.136285
 2926 Fit      -0.136812
 2927 Fit      -0.137582
 2928 Fit      -0.138583
 2929 Fit      -0.139822
 2930 Fit      -0.141320
 2931 Fit      -0.143096
 2932 Fit      -0.145132
 2933 Fit      -0.147324
 2934 Fit      -0.149446
 2935 Fit      -0.157277
 2936 Fit      -0.158631
 2937 Fit      -0.158874
 2938 Fit      -0.158072
 2939 Fit      -0.156583
 2940 Fit      -0.154864
 2941 Fit      -0.153249
 2942 Fit      -0.151849
 2943 Fit      -0.150587
 2944 Fit      -0.149314
 2945 Fit      -0.147912
 2946 Fit      -0.146351
 2947 Fit      -0.144679
 2948 Fit      -0.142997
 2949 Fit      -0.141410
 2950 Fit      -0.140012
 2951 Fit      -0.138866
 2952 Fit      -0.138008
 2953 Fit      -0.137450
 2954 Fit      -0.137186
 2955 Fit      -0.137197
 2956 Fit      -0.137458
 2957 Fit      -0.137940
 2958 Fit      -0.138619
 2959 Fit      -0.139479
 2960 Fit      -0.140523
 2961 Fit      -0.141772
 2962 Fit      -0.143269
 2963 Fit      -0.145070
 2964 Fit      -0.147218
 2965 Fit      -0.149701
 2966 Fit      -0.152403
 2967 Fit      -0.155061
 2968 Fit      -0.162012
 2969 Fit      -0.159655
 2970 Fit      -0.157818
 2971 Fit      -0.156417
 2972 Fit      -0.155188
 2973 Fit      -0.153864
 2974 Fit      -0.152290
 2975 Fit      -0.150452
 2976 Fit      -0.148441
 2977 Fit      -0.146398
 2978 Fit      -0.144461
 2979 Fit      -0.142738
 2980 Fit      -0.141301
 2981 Fit      -0.140188
 2982 Fit      -0.139408
 2983 Fit      -0.138952
 2984 Fit      -0.138798
 2985 Fit      -0.138915
 2986 Fit      -0.139268
 2987 Fit      -0.139824
 2988 Fit      -0.140553
 2989 Fit      -0.141436
 2990 Fit      -0.142472
 2991 Fit      -0.143686
 2992 Fit      -0.145132
 2993 Fit      -0.146896
 2994 Fit      -0.149082
 2995 Fit      -0.151782
 2996 Fit      -0.155021
 2997 Fit      -0.158677
 2998 Fit      -0.165094
 2999 Fit      -0.163463
 3000 Fit      -0.162320
 3001 Fit      -0.161141
 3002 Fit      -0.159575
 3003 Fit      -0.157521
 3004 Fit      -0.155077
 3005 Fit      -0.152450
 3006 Fit      -0.149855
 3007 Fit      -0.147468
 3008 Fit      -0.145406
 3009 Fit      -0.143730
 3010 Fit      -0.142462
 3011 Fit      -0.141595
 3012 Fit      -0.141103
 3013 Fit      -0.140951
 3014 Fit      -0.141098
 3015 Fit      -0.141497
 3016 Fit      -0.142106
 3017 Fit      -0.142882
 3018 Fit      -0.143795
 3019 Fit      -0.144830
 3020 Fit      -0.146000
 3021 Fit      -0.147352
 3022 Fit      -0.148984
 3023 Fit      -0.151040
 3024 Fit      -0.153705
 3025 Fit      -0.157168
 3026 Fit      -0.157487
 3027 Fit      -0.154133
 3028 Fit      -0.151162
 3029 Fit      -0.148678
 3030 Fit      -0.146719
 3031 Fit      -0.145278
 3032 Fit      -0.144323
 3033 Fit      -0.143808
 3034 Fit      -0.143682
 3035 Fit      -0.143891
 3036 Fit      -0.144377
 3037 Fit      -0.145085
 3038 Fit      -0.145963
 3039 Fit      -0.146964
 3040 Fit      -0.148056
 3041 Fit      -0.149229
 3042 Fit      -0.150512
 3043 Fit      -0.151987
 3044 Fit      -0.153803
 3045 Fit      -0.156191
 3046 Fit      -0.159457
 3047 Fit      -0.157760
 3048 Fit      -0.154255
 3049 Fit      -0.151509
 3050 Fit      -0.149486
 3051 Fit      -0.148124
 3052 Fit      -0.147347
 3053 Fit      -0.147078
 3054 Fit      -0.147242
 3055 Fit      -0.147766
 3056 Fit      -0.148577
 3057 Fit      -0.149603
 3058 Fit      -0.150777
 3059 Fit      -0.152036
 3060 Fit      -0.153336
 3061 Fit      -0.154660
 3062 Fit      -0.156041
 3063 Fit      -0.157590
 3064 Fit      -0.159519
 3065 Fit      -0.162175
 3066 Fit      -0.158142
 3067 Fit      -0.155032
 3068 Fit      -0.152954
 3069 Fit      -0.151759
 3070 Fit      -0.151310
 3071 Fit      -0.151485
 3072 Fit      -0.152172
 3073 Fit      -0.153267
 3074 Fit      -0.154664
 3075 Fit      -0.156260
 3076 Fit      -0.157952
 3077 Fit      -0.159648
 3078 Fit      -0.160807
 3079 Fit      -0.158178
 3080 Fit      -0.156862
 3081 Fit      -0.156616
 3082 Fit      -0.157239
 3083 Fit      -0.158561
 3084 Fit      -0.164721
 3085 Fit      -0.163397
 -----------------------------------------------------------------
 Leave Link  602 at Thu Apr 12 06:42:01 2018, MaxMem=   33554432 cpu:       0.2

 Test job not archived.
 1\1\GINC-N0631\FOpt\RHF\6-31G(d)\B1F4(1-)\WAB665\12-Apr-2018\0\\#HF/6-
 31G* SCF=tight Test Pop=MK iop(6/33=2) NoSymm iop(6/42=6) opt\\remark 
 line goes here\\-1,1\B,-0.0000053719,0.000169408,0.0000047776\F,-0.263
 4172189,-1.0168479217,-0.9153933152\F,-0.5988320166,1.1815637789,-0.43
 31463216\F,1.3770002677,0.1878253857,0.1023904653\F,-0.5147456603,-0.3
 517106509,1.2461443939\\Version=EM64L-G09RevA.02\HF=-422.7251458\RMSD=
 7.523e-09\RMSF=1.690e-05\Dipole=-0.0000469,-0.0001845,0.0000457\Quadru
 pole=-0.0002117,-0.0001135,0.0003252,0.0001399,-0.0001571,0.0001313\PG
 =C01 [X(B1F4)]\\@


 E PUR SI MUOVE    -- GALILEO GALILEI
 Job cpu time:  0 days  0 hours  0 minutes  4.7 seconds.
 File lengths (MBytes):  RWF=    136 Int=      0 D2E=      0 Chk=      4 Scr=      4
 Normal termination of Gaussian 09 at Thu Apr 12 06:42:01 2018.
