 Entering Gaussian System, Link 0=g09
 Input=BMI.backup.com
 Output=BMI.backup.log
 Initial command:
 /gscratch/pfaendtner/codes/G09/g09/l1.exe /scr/Gau-18934.inp -scrdir=/scr/
 Entering Link 1 = /gscratch/pfaendtner/codes/G09/g09/l1.exe PID=     18935.
  
 Copyright (c) 1988,1990,1992,1993,1995,1998,2003,2009, Gaussian, Inc.
                  All Rights Reserved.
  
 This is part of the Gaussian(R) 09 program.  It is based on
 the Gaussian(R) 03 system (copyright 2003, Gaussian, Inc.),
 the Gaussian(R) 98 system (copyright 1998, Gaussian, Inc.),
 the Gaussian(R) 94 system (copyright 1995, Gaussian, Inc.),
 the Gaussian 92(TM) system (copyright 1992, Gaussian, Inc.),
 the Gaussian 90(TM) system (copyright 1990, Gaussian, Inc.),
 the Gaussian 88(TM) system (copyright 1988, Gaussian, Inc.),
 the Gaussian 86(TM) system (copyright 1986, Carnegie Mellon
 University), and the Gaussian 82(TM) system (copyright 1983,
 Carnegie Mellon University). Gaussian is a federally registered
 trademark of Gaussian, Inc.
  
 This software contains proprietary and confidential information,
 including trade secrets, belonging to Gaussian, Inc.
  
 This software is provided under written license and may be
 used, copied, transmitted, or stored only in accord with that
 written license.
  
 The following legend is applicable only to US Government
 contracts under FAR:
  
                    RESTRICTED RIGHTS LEGEND
  
 Use, reproduction and disclosure by the US Government is
 subject to restrictions as set forth in subparagraphs (a)
 and (c) of the Commercial Computer Software - Restricted
 Rights clause in FAR 52.227-19.
  
 Gaussian, Inc.
 340 Quinnipiac St., Bldg. 40, Wallingford CT 06492
  
  
 ---------------------------------------------------------------
 Warning -- This program may not be used in any manner that
 competes with the business of Gaussian, Inc. or will provide
 assistance to any competitor of Gaussian, Inc.  The licensee
 of this program is prohibited from giving any competitor of
 Gaussian, Inc. access to this program.  By using this program,
 the user acknowledges that Gaussian, Inc. is engaged in the
 business of creating and licensing software in the field of
 computational chemistry and represents and warrants to the
 licensee that it is not a competitor of Gaussian, Inc. and that
 it will not use this program in any manner prohibited above.
 ---------------------------------------------------------------
  

 Cite this work as:
 Gaussian 09, Revision A.02,
 M. J. Frisch, G. W. Trucks, H. B. Schlegel, G. E. Scuseria, 
 M. A. Robb, J. R. Cheeseman, G. Scalmani, V. Barone, B. Mennucci, 
 G. A. Petersson, H. Nakatsuji, M. Caricato, X. Li, H. P. Hratchian, 
 A. F. Izmaylov, J. Bloino, G. Zheng, J. L. Sonnenberg, M. Hada, 
 M. Ehara, K. Toyota, R. Fukuda, J. Hasegawa, M. Ishida, T. Nakajima, 
 Y. Honda, O. Kitao, H. Nakai, T. Vreven, J. A. Montgomery, Jr., 
 J. E. Peralta, F. Ogliaro, M. Bearpark, J. J. Heyd, E. Brothers, 
 K. N. Kudin, V. N. Staroverov, R. Kobayashi, J. Normand, 
 K. Raghavachari, A. Rendell, J. C. Burant, S. S. Iyengar, J. Tomasi, 
 M. Cossi, N. Rega, J. M. Millam, M. Klene, J. E. Knox, J. B. Cross, 
 V. Bakken, C. Adamo, J. Jaramillo, R. Gomperts, R. E. Stratmann, 
 O. Yazyev, A. J. Austin, R. Cammi, C. Pomelli, J. W. Ochterski, 
 R. L. Martin, K. Morokuma, V. G. Zakrzewski, G. A. Voth, 
 P. Salvador, J. J. Dannenberg, S. Dapprich, A. D. Daniels, 
 O. Farkas, J. B. Foresman, J. V. Ortiz, J. Cioslowski, 
 and D. J. Fox, Gaussian, Inc., Wallingford CT, 2009.
 
 ******************************************
 Gaussian 09:  EM64L-G09RevA.02 11-Jun-2009
                28-Jun-2018 
 ******************************************
 %chk=molecule
 -------------------------------------------------------------------
 #HF/6-31G* SCF=tight Test Pop=MK iop(6/33=2) NoSymm iop(6/42=6) opt
 -------------------------------------------------------------------
 1/18=20,19=15,38=1/1,3;
 2/9=110,12=2,15=1,17=6,18=5,40=1/2;
 3/5=1,6=6,7=1,11=9,16=1,25=1,30=1,71=1/1,2,3;
 4//1;
 5/5=2,32=2,38=5/2;
 6/7=2,8=2,9=2,10=2,15=8,20=1,28=1,33=2,42=6/1,2;
 7/30=1/1,2,3,16;
 1/18=20,19=15/3(2);
 2/9=110,15=1/2;
 99//99;
 2/9=110,15=1/2;
 3/5=1,6=6,7=1,11=9,16=1,25=1,30=1,71=1/1,2,3;
 4/5=5,16=3/1;
 5/5=2,32=2,38=5/2;
 7/30=1/1,2,3,16;
 1/18=20,19=15/3(-5);
 2/9=110,15=1/2;
 6/7=2,8=2,9=2,10=2,15=8,19=2,20=1,28=1,33=2,42=6/1,2;
 99/9=1/99;
 ---------------------
 remark line goes here
 ---------------------
 Symbolic Z-matrix:
 Charge = -1 Multiplicity = 1
 C                     0.15     -0.353    -0.895 
 C                     1.432    -0.337    -0.501 
 C                     0.506     1.527     0.142 
 N                    -0.418     0.832    -0.482 
 H                    -0.405    -1.091    -1.431 
 H                     2.213    -1.056    -0.626 
 H                     0.36      2.495     0.574 
 N                     1.639     0.858     0.153 
 C                     2.904     1.301     0.746 
 H                     3.207     0.598     1.507 
 H                     3.657     1.363    -0.025 
 H                     2.761     2.274     1.189 
 C                    -1.827     1.232    -0.676 
 H                    -1.872     2.302    -0.526 
 H                    -2.068     1.036    -1.712 
 C                    -2.772     0.498     0.272 
 H                    -2.676    -0.573     0.122 
 H                    -2.477     0.702     1.298 
 C                    -4.228     0.922     0.052 
 H                    -4.318     1.996     0.197 
 H                    -4.51      0.723    -0.979 
 C                    -5.19      0.199     0.993 
 H                    -4.954     0.405     2.032 
 H                    -6.21      0.518     0.815 
 H                    -5.149    -0.876     0.847 
 

 GradGradGradGradGradGradGradGradGradGradGradGradGradGradGradGradGradGrad
 Berny optimization.
 Initialization pass.
                           ----------------------------
                           !    Initial Parameters    !
                           ! (Angstroms and Degrees)  !
 --------------------------                            --------------------------
 ! Name  Definition              Value          Derivative Info.                !
 --------------------------------------------------------------------------------
 ! R1    R(1,2)                  1.3413         estimate D2E/DX2                !
 ! R2    R(1,4)                  1.3775         estimate D2E/DX2                !
 ! R3    R(1,5)                  1.0677         estimate D2E/DX2                !
 ! R4    R(2,6)                  1.0689         estimate D2E/DX2                !
 ! R5    R(2,8)                  1.3779         estimate D2E/DX2                !
 ! R6    R(3,4)                  1.3138         estimate D2E/DX2                !
 ! R7    R(3,7)                  1.07           estimate D2E/DX2                !
 ! R8    R(3,8)                  1.3158         estimate D2E/DX2                !
 ! R9    R(4,13)                 1.4775         estimate D2E/DX2                !
 ! R10   R(8,9)                  1.4656         estimate D2E/DX2                !
 ! R11   R(9,10)                 1.0794         estimate D2E/DX2                !
 ! R12   R(9,11)                 1.0795         estimate D2E/DX2                !
 ! R13   R(9,12)                 1.0786         estimate D2E/DX2                !
 ! R14   R(13,14)                1.0814         estimate D2E/DX2                !
 ! R15   R(13,15)                1.0816         estimate D2E/DX2                !
 ! R16   R(13,16)                1.5266         estimate D2E/DX2                !
 ! R17   R(16,17)                1.0857         estimate D2E/DX2                !
 ! R18   R(16,18)                1.0869         estimate D2E/DX2                !
 ! R19   R(16,19)                1.5324         estimate D2E/DX2                !
 ! R20   R(19,20)                1.0875         estimate D2E/DX2                !
 ! R21   R(19,21)                1.0872         estimate D2E/DX2                !
 ! R22   R(19,22)                1.5276         estimate D2E/DX2                !
 ! R23   R(22,23)                1.0852         estimate D2E/DX2                !
 ! R24   R(22,24)                1.0834         estimate D2E/DX2                !
 ! R25   R(22,25)                1.0856         estimate D2E/DX2                !
 ! A1    A(2,1,4)              107.205          estimate D2E/DX2                !
 ! A2    A(2,1,5)              130.7345         estimate D2E/DX2                !
 ! A3    A(4,1,5)              122.0597         estimate D2E/DX2                !
 ! A4    A(1,2,6)              130.9949         estimate D2E/DX2                !
 ! A5    A(1,2,8)              107.0593         estimate D2E/DX2                !
 ! A6    A(6,2,8)              121.9453         estimate D2E/DX2                !
 ! A7    A(4,3,7)              125.0529         estimate D2E/DX2                !
 ! A8    A(4,3,8)              109.9128         estimate D2E/DX2                !
 ! A9    A(7,3,8)              125.034          estimate D2E/DX2                !
 ! A10   A(1,4,3)              107.907          estimate D2E/DX2                !
 ! A11   A(1,4,13)             125.9286         estimate D2E/DX2                !
 ! A12   A(3,4,13)             126.1456         estimate D2E/DX2                !
 ! A13   A(2,8,3)              107.9158         estimate D2E/DX2                !
 ! A14   A(2,8,9)              125.7209         estimate D2E/DX2                !
 ! A15   A(3,8,9)              126.3623         estimate D2E/DX2                !
 ! A16   A(8,9,10)             109.3096         estimate D2E/DX2                !
 ! A17   A(8,9,11)             109.2956         estimate D2E/DX2                !
 ! A18   A(8,9,12)             108.9294         estimate D2E/DX2                !
 ! A19   A(10,9,11)            110.1901         estimate D2E/DX2                !
 ! A20   A(10,9,12)            109.5825         estimate D2E/DX2                !
 ! A21   A(11,9,12)            109.5122         estimate D2E/DX2                !
 ! A22   A(4,13,14)            106.8191         estimate D2E/DX2                !
 ! A23   A(4,13,15)            106.8106         estimate D2E/DX2                !
 ! A24   A(4,13,16)            112.2487         estimate D2E/DX2                !
 ! A25   A(14,13,15)           107.6319         estimate D2E/DX2                !
 ! A26   A(14,13,16)           111.3365         estimate D2E/DX2                !
 ! A27   A(15,13,16)           111.7009         estimate D2E/DX2                !
 ! A28   A(13,16,17)           109.4975         estimate D2E/DX2                !
 ! A29   A(13,16,18)           109.1441         estimate D2E/DX2                !
 ! A30   A(13,16,19)           111.4683         estimate D2E/DX2                !
 ! A31   A(17,16,18)           106.952          estimate D2E/DX2                !
 ! A32   A(17,16,19)           109.7022         estimate D2E/DX2                !
 ! A33   A(18,16,19)           109.9675         estimate D2E/DX2                !
 ! A34   A(16,19,20)           109.4366         estimate D2E/DX2                !
 ! A35   A(16,19,21)           109.387          estimate D2E/DX2                !
 ! A36   A(16,19,22)           112.2694         estimate D2E/DX2                !
 ! A37   A(20,19,21)           106.603          estimate D2E/DX2                !
 ! A38   A(20,19,22)           109.4611         estimate D2E/DX2                !
 ! A39   A(21,19,22)           109.5216         estimate D2E/DX2                !
 ! A40   A(19,22,23)           111.2829         estimate D2E/DX2                !
 ! A41   A(19,22,24)           110.6286         estimate D2E/DX2                !
 ! A42   A(19,22,25)           111.2243         estimate D2E/DX2                !
 ! A43   A(23,22,24)           107.827          estimate D2E/DX2                !
 ! A44   A(23,22,25)           107.9695         estimate D2E/DX2                !
 ! A45   A(24,22,25)           107.7585         estimate D2E/DX2                !
 ! D1    D(4,1,2,6)           -179.6411         estimate D2E/DX2                !
 ! D2    D(4,1,2,8)              0.1            estimate D2E/DX2                !
 ! D3    D(5,1,2,6)              0.0465         estimate D2E/DX2                !
 ! D4    D(5,1,2,8)            179.7876         estimate D2E/DX2                !
 ! D5    D(2,1,4,3)             -0.1251         estimate D2E/DX2                !
 ! D6    D(2,1,4,13)          -178.6227         estimate D2E/DX2                !
 ! D7    D(5,1,4,3)           -179.8458         estimate D2E/DX2                !
 ! D8    D(5,1,4,13)             1.6566         estimate D2E/DX2                !
 ! D9    D(1,2,8,3)             -0.0406         estimate D2E/DX2                !
 ! D10   D(1,2,8,9)           -179.6961         estimate D2E/DX2                !
 ! D11   D(6,2,8,3)            179.7291         estimate D2E/DX2                !
 ! D12   D(6,2,8,9)              0.0736         estimate D2E/DX2                !
 ! D13   D(7,3,4,1)            179.8903         estimate D2E/DX2                !
 ! D14   D(7,3,4,13)            -1.6163         estimate D2E/DX2                !
 ! D15   D(8,3,4,1)              0.1015         estimate D2E/DX2                !
 ! D16   D(8,3,4,13)           178.5949         estimate D2E/DX2                !
 ! D17   D(4,3,8,2)             -0.039          estimate D2E/DX2                !
 ! D18   D(4,3,8,9)            179.6138         estimate D2E/DX2                !
 ! D19   D(7,3,8,2)           -179.8278         estimate D2E/DX2                !
 ! D20   D(7,3,8,9)             -0.175          estimate D2E/DX2                !
 ! D21   D(1,4,13,14)         -162.7309         estimate D2E/DX2                !
 ! D22   D(1,4,13,15)          -47.7771         estimate D2E/DX2                !
 ! D23   D(1,4,13,16)           74.97           estimate D2E/DX2                !
 ! D24   D(3,4,13,14)           19.0396         estimate D2E/DX2                !
 ! D25   D(3,4,13,15)          133.9934         estimate D2E/DX2                !
 ! D26   D(3,4,13,16)         -103.2595         estimate D2E/DX2                !
 ! D27   D(2,8,9,10)           -60.1729         estimate D2E/DX2                !
 ! D28   D(2,8,9,11)            60.5007         estimate D2E/DX2                !
 ! D29   D(2,8,9,12)          -179.883          estimate D2E/DX2                !
 ! D30   D(3,8,9,10)           120.2341         estimate D2E/DX2                !
 ! D31   D(3,8,9,11)          -119.0923         estimate D2E/DX2                !
 ! D32   D(3,8,9,12)             0.5241         estimate D2E/DX2                !
 ! D33   D(4,13,16,17)         -58.2103         estimate D2E/DX2                !
 ! D34   D(4,13,16,18)          58.5544         estimate D2E/DX2                !
 ! D35   D(4,13,16,19)        -179.7808         estimate D2E/DX2                !
 ! D36   D(14,13,16,17)       -177.9081         estimate D2E/DX2                !
 ! D37   D(14,13,16,18)        -61.1434         estimate D2E/DX2                !
 ! D38   D(14,13,16,19)         60.5214         estimate D2E/DX2                !
 ! D39   D(15,13,16,17)         61.7309         estimate D2E/DX2                !
 ! D40   D(15,13,16,18)        178.4956         estimate D2E/DX2                !
 ! D41   D(15,13,16,19)        -59.8396         estimate D2E/DX2                !
 ! D42   D(13,16,19,20)        -58.1878         estimate D2E/DX2                !
 ! D43   D(13,16,19,21)         58.2609         estimate D2E/DX2                !
 ! D44   D(13,16,19,22)       -179.9424         estimate D2E/DX2                !
 ! D45   D(17,16,19,20)       -179.6395         estimate D2E/DX2                !
 ! D46   D(17,16,19,21)        -63.1907         estimate D2E/DX2                !
 ! D47   D(17,16,19,22)         58.606          estimate D2E/DX2                !
 ! D48   D(18,16,19,20)         62.9983         estimate D2E/DX2                !
 ! D49   D(18,16,19,21)        179.447          estimate D2E/DX2                !
 ! D50   D(18,16,19,22)        -58.7563         estimate D2E/DX2                !
 ! D51   D(16,19,22,23)         60.1555         estimate D2E/DX2                !
 ! D52   D(16,19,22,24)       -179.9966         estimate D2E/DX2                !
 ! D53   D(16,19,22,25)        -60.2732         estimate D2E/DX2                !
 ! D54   D(20,19,22,23)        -61.585          estimate D2E/DX2                !
 ! D55   D(20,19,22,24)         58.2629         estimate D2E/DX2                !
 ! D56   D(20,19,22,25)        177.9862         estimate D2E/DX2                !
 ! D57   D(21,19,22,23)       -178.1246         estimate D2E/DX2                !
 ! D58   D(21,19,22,24)        -58.2767         estimate D2E/DX2                !
 ! D59   D(21,19,22,25)         61.4467         estimate D2E/DX2                !
 --------------------------------------------------------------------------------
 Trust Radius=3.00D-01 FncErr=1.00D-07 GrdErr=1.00D-07
 Number of steps in this run= 139 maximum allowed number of steps= 150.
 GradGradGradGradGradGradGradGradGradGradGradGradGradGradGradGradGradGrad

                          Input orientation:                          
 ---------------------------------------------------------------------
 Center     Atomic      Atomic             Coordinates (Angstroms)
 Number     Number       Type             X           Y           Z
 ---------------------------------------------------------------------
      1          6           0        0.150000   -0.353000   -0.895000
      2          6           0        1.432000   -0.337000   -0.501000
      3          6           0        0.506000    1.527000    0.142000
      4          7           0       -0.418000    0.832000   -0.482000
      5          1           0       -0.405000   -1.091000   -1.431000
      6          1           0        2.213000   -1.056000   -0.626000
      7          1           0        0.360000    2.495000    0.574000
      8          7           0        1.639000    0.858000    0.153000
      9          6           0        2.904000    1.301000    0.746000
     10          1           0        3.207000    0.598000    1.507000
     11          1           0        3.657000    1.363000   -0.025000
     12          1           0        2.761000    2.274000    1.189000
     13          6           0       -1.827000    1.232000   -0.676000
     14          1           0       -1.872000    2.302000   -0.526000
     15          1           0       -2.068000    1.036000   -1.712000
     16          6           0       -2.772000    0.498000    0.272000
     17          1           0       -2.676000   -0.573000    0.122000
     18          1           0       -2.477000    0.702000    1.298000
     19          6           0       -4.228000    0.922000    0.052000
     20          1           0       -4.318000    1.996000    0.197000
     21          1           0       -4.510000    0.723000   -0.979000
     22          6           0       -5.190000    0.199000    0.993000
     23          1           0       -4.954000    0.405000    2.032000
     24          1           0       -6.210000    0.518000    0.815000
     25          1           0       -5.149000   -0.876000    0.847000
 ---------------------------------------------------------------------
                    Distance matrix (angstroms):
                    1          2          3          4          5
     1  C    0.000000
     2  C    1.341274   0.000000
     3  C    2.176351   2.178399   0.000000
     4  N    1.377468   2.188475   1.313841   0.000000
     5  H    1.067691   2.192712   3.187189   2.144458   0.000000
     6  H    2.196028   1.068900   3.189916   3.241518   2.739192
     7  H    3.211412   3.213259   1.070030   2.118015   4.179072
     8  N    2.186766   1.377893   1.315816   2.152940   3.238147
     9  C    3.607369   2.530778   2.483203   3.572622   4.627145
    10  H    4.002406   2.838470   3.165702   4.141437   4.952889
    11  H    4.000076   2.840282   3.159681   4.134784   4.949626
    12  H    4.249883   3.382257   2.596005   3.870096   5.311420
    13  C    2.543367   3.621252   2.489787   1.477470   2.826382
    14  H    3.357629   4.228636   2.588771   2.068079   3.805728
    15  H    2.741593   3.949892   3.209965   2.068095   2.714527
    16  C    3.259474   4.355269   3.438172   2.494271   3.320816
    17  H    3.011472   4.161669   3.812548   2.727161   2.799567
    18  H    3.580978   4.426760   3.303824   2.724845   3.867231
    19  C    4.657179   5.824645   4.773351   3.848293   4.568018
    20  H    5.164619   6.244405   4.847057   4.126250   5.243236
    21  H    4.783349   6.054705   5.202241   4.123512   4.510646
    22  C    5.690769   6.809568   5.910347   5.034709   5.516892
    23  H    5.932344   6.909967   5.885795   5.203635   5.909635
    24  H    6.643218   7.801477   6.824637   5.943742   6.428952
    25  H    5.602454   6.739227   6.184696   5.202487   5.266977
                    6          7          8          9         10
     6  H    0.000000
     7  H    4.181293   0.000000
     8  N    2.144694   2.119635   0.000000
     9  C    2.813417   2.815521   1.465648   0.000000
    10  H    2.876359   3.546055   2.087951   1.079416   0.000000
    11  H    2.880607   3.537009   2.087830   1.079488   1.770522
    12  H    3.831896   2.488346   2.082603   1.078623   1.763240
    13  C    4.643172   2.817914   3.583333   4.940567   5.523459
    14  H    5.288988   2.495811   3.856592   5.042833   5.730004
    15  H    4.887005   3.640008   4.153524   5.552727   6.195113
    16  C    5.298259   3.726746   4.427266   5.752083   6.106035
    17  H    4.969418   4.339841   4.546201   5.919261   6.156229
    18  H    5.365486   3.433307   4.275139   5.442303   5.688792
    19  C    6.771901   4.878171   5.868218   7.175702   7.582956
    20  H    7.255756   4.719620   6.064885   7.276105   7.765058
    21  H    6.963345   5.410055   6.253787   7.633944   8.108508
    22  C    7.681184   6.020770   6.911955   8.172408   8.422173
    23  H    7.782376   5.893425   6.870480   8.012788   8.180146
    24  H    8.689125   6.865239   7.884202   9.147833   9.442730
    25  H    7.510071   6.464306   7.040265   8.342682   8.510641
                   11         12         13         14         15
    11  H    0.000000
    12  H    1.762536   0.000000
    13  C    5.524058   5.061001   0.000000
    14  H    5.630503   4.940314   1.081400   0.000000
    15  H    5.977334   5.767815   1.081570   1.745786   0.000000
    16  C    6.493726   5.882955   1.526593   2.168230   2.172859
    17  H    6.623941   6.229355   2.148402   3.054823   2.514379
    18  H    6.309771   5.469891   2.144779   2.500600   3.055967
    19  C    7.897698   7.208800   2.528020   2.790917   2.791109
    20  H    8.003162   7.153572   2.747891   2.568907   3.102963
    21  H    8.247400   7.744241   2.747613   3.107651   2.568778
    22  C    8.981126   8.219638   3.893895   4.211780   4.214793
    23  H    8.904961   7.982796   4.218450   4.431783   4.769140
    24  H    9.938678   9.148894   4.684396   4.878440   4.879571
    25  H    9.127932   8.521007   4.218872   4.766922   4.438106
                   16         17         18         19         20
    16  C    0.000000
    17  H    1.085706   0.000000
    18  H    1.086884   1.745910   0.000000
    19  C    1.532355   2.156068   2.160305   0.000000
    20  H    2.154007   3.049844   2.505178   1.087475   0.000000
    21  H    2.153200   2.501074   3.052582   1.087238   1.743665
    22  C    2.540859   2.770347   2.776041   1.527630   2.150165
    23  H    2.804884   3.129516   2.600480   2.171351   2.510578
    24  H    3.480674   3.762936   3.768612   2.161876   2.479127
    25  H    2.805108   2.594834   3.135772   2.170961   3.059648
                   21         22         23         24         25
    21  H    0.000000
    22  C    2.150758   0.000000
    23  H    3.060128   1.085197   0.000000
    24  H    2.480012   1.083441   1.752539   0.000000
    25  H    2.509860   1.085644   1.755907   1.752136   0.000000
 Symmetry turned off by external request.
 Stoichiometry    C8H15N2(1-)
 Framework group  C1[X(C8H15N2)]
 Deg. of freedom    69
 Full point group                 C1      NOp   1
 Rotational constants (GHZ):      4.0687903      0.5152513      0.4969103
 Standard basis: 6-31G(d) (6D, 7F)
 Integral buffers will be    131072 words long.
 Raffenetti 1 integral format.
 Two-electron integral symmetry is turned off.
   180 basis functions,   340 primitive gaussians,   180 cartesian basis functions
    39 alpha electrons       39 beta electrons
       nuclear repulsion energy       532.4151037126 Hartrees.
 NAtoms=   25 NActive=   25 NUniq=   25 SFac= 7.50D-01 NAtFMM=   80 NAOKFM=F Big=F
 One-electron integrals computed using PRISM.
 NBasis=   180 RedAO= T  NBF=   180
 NBsUse=   180 1.00D-06 NBFU=   180
 Harris functional with IExCor=  205 diagonalized for initial guess.
 ExpMin= 1.61D-01 ExpMax= 4.17D+03 ExpMxC= 6.27D+02 IAcc=1 IRadAn=         1 AccDes= 0.00D+00
 HarFok:  IExCor=  205 AccDes= 0.00D+00 IRadAn=         1 IDoV= 1
 ScaDFX=  1.000000  1.000000  1.000000  1.000000
 FoFCou: FMM=F IPFlag=           0 FMFlag=      100000 FMFlg1=           0
         NFxFlg=           0 DoJE=T BraDBF=F KetDBF=T FulRan=T
         Omega=  0.000000  0.000000  1.000000  0.000000  0.000000 ICntrl=     500 IOpCl=  0
         NMat0=    1 NMatS0=    1 NMatT0=    0 NMatD0=    1 NMtDS0=    0 NMtDT0=    0
         I1Cent=           4 NGrid=           0.
 Symmetry not used in FoFCou.
 Requested convergence on RMS density matrix=1.00D-08 within 128 cycles.
 Requested convergence on MAX density matrix=1.00D-06.
 Requested convergence on             energy=1.00D-06.
 No special actions if energy rises.
 Integral accuracy reduced to 1.0D-05 until final iterations.
 Initial convergence to 1.0D-05 achieved.  Increase integral accuracy.
 SCF Done:  E(RHF) =  -420.223210064     A.U. after   30 cycles
             Convg  =    0.5756D-08             -V/T =  1.9984

 **********************************************************************

            Population analysis using the SCF density.

 **********************************************************************

 Alpha  occ. eigenvalues --  -15.31540 -15.30529 -11.10857 -11.09809 -11.08218
 Alpha  occ. eigenvalues --  -11.07357 -11.06763 -11.04233 -11.03722 -10.88653
 Alpha  occ. eigenvalues --   -1.09038  -0.97234  -0.93792  -0.84844  -0.79429
 Alpha  occ. eigenvalues --   -0.74435  -0.71604  -0.66246  -0.57758  -0.55135
 Alpha  occ. eigenvalues --   -0.51696  -0.49790  -0.47520  -0.44505  -0.42820
 Alpha  occ. eigenvalues --   -0.42121  -0.40989  -0.38988  -0.37774  -0.35882
 Alpha  occ. eigenvalues --   -0.35355  -0.34430  -0.32920  -0.31364  -0.30870
 Alpha  occ. eigenvalues --   -0.29667  -0.17130  -0.10454   0.17270
 Alpha virt. eigenvalues --    0.34296   0.38704   0.39516   0.40155   0.41240
 Alpha virt. eigenvalues --    0.41393   0.43099   0.44578   0.44944   0.46249
 Alpha virt. eigenvalues --    0.46893   0.47662   0.48541   0.50001   0.51006
 Alpha virt. eigenvalues --    0.51774   0.53652   0.55349   0.56818   0.59330
 Alpha virt. eigenvalues --    0.61394   0.64523   0.67460   0.74753   0.76534
 Alpha virt. eigenvalues --    0.84225   0.85727   0.86468   0.87719   0.88579
 Alpha virt. eigenvalues --    0.89734   0.92092   0.93195   0.94110   0.98449
 Alpha virt. eigenvalues --    0.99620   1.01164   1.04323   1.06762   1.08125
 Alpha virt. eigenvalues --    1.11252   1.12831   1.15067   1.17156   1.18889
 Alpha virt. eigenvalues --    1.19019   1.20966   1.23019   1.25372   1.26006
 Alpha virt. eigenvalues --    1.28018   1.28597   1.29064   1.30061   1.31077
 Alpha virt. eigenvalues --    1.32926   1.33001   1.34131   1.35112   1.35857
 Alpha virt. eigenvalues --    1.37443   1.38463   1.39402   1.39713   1.39907
 Alpha virt. eigenvalues --    1.44709   1.46880   1.47926   1.53595   1.56032
 Alpha virt. eigenvalues --    1.59709   1.64379   1.71820   1.74129   1.79335
 Alpha virt. eigenvalues --    1.81180   1.84642   1.86507   1.87507   1.90741
 Alpha virt. eigenvalues --    1.93055   1.95444   2.01294   2.03882   2.07211
 Alpha virt. eigenvalues --    2.10728   2.15843   2.17631   2.26294   2.31063
 Alpha virt. eigenvalues --    2.35407   2.39643   2.40329   2.41646   2.43074
 Alpha virt. eigenvalues --    2.43929   2.48068   2.50023   2.51591   2.54353
 Alpha virt. eigenvalues --    2.55522   2.61117   2.67475   2.67880   2.69708
 Alpha virt. eigenvalues --    2.71735   2.74260   2.75056   2.79828   2.81083
 Alpha virt. eigenvalues --    2.83308   2.85375   2.88757   2.89713   2.92947
 Alpha virt. eigenvalues --    2.94393   2.97322   3.00845   3.04015   3.06202
 Alpha virt. eigenvalues --    3.12026   3.15578   3.25788   3.29816   3.31357
 Alpha virt. eigenvalues --    3.37095   3.41507   3.47928   3.70161   3.74426
 Alpha virt. eigenvalues --    3.86657   4.64576   4.68958   4.76358   4.79430
 Alpha virt. eigenvalues --    4.86672   4.93600   5.01336   5.08579   5.12697
 Alpha virt. eigenvalues --    5.17557
          Condensed to atoms (all electrons):
              1          2          3          4          5          6
     1  C    4.778587   0.745532  -0.027254   0.311549   0.379855  -0.038439
     2  C    0.745532   4.818958  -0.004723  -0.115884  -0.038258   0.383179
     3  C   -0.027254  -0.004723   6.196839  -0.120535   0.004878   0.004540
     4  N    0.311549  -0.115884  -0.120535   7.373407  -0.045485   0.003469
     5  H    0.379855  -0.038258   0.004878  -0.045485   0.579658   0.000235
     6  H   -0.038439   0.383179   0.004540   0.003469   0.000235   0.578429
     7  H    0.006181   0.005274   0.430670  -0.060598  -0.000137  -0.000166
     8  N   -0.106131   0.275666  -0.151957   0.043812   0.003575  -0.044781
     9  C    0.003388  -0.046331  -0.048551   0.004558  -0.000113  -0.000587
    10  H   -0.000248   0.004758   0.010311  -0.000238  -0.000016   0.001423
    11  H    0.000532   0.001508   0.009837  -0.000531   0.000009   0.001079
    12  H    0.000179   0.002453  -0.002442  -0.000285   0.000004  -0.000170
    13  C   -0.044973   0.003889  -0.037851   0.333169  -0.001215  -0.000109
    14  H    0.004666  -0.000030   0.006880  -0.036499   0.000171   0.000004
    15  H    0.001121  -0.000357   0.006297  -0.060265   0.003654  -0.000010
    16  C   -0.002411  -0.000211  -0.008961  -0.056138  -0.000164   0.000001
    17  H    0.002315   0.000239   0.001144  -0.006428  -0.000294   0.000004
    18  H    0.000888   0.000175   0.014781  -0.019271  -0.000095   0.000000
    19  C   -0.000065  -0.000008  -0.000521   0.006860   0.000020   0.000000
    20  H   -0.000003   0.000000  -0.000036   0.000072   0.000000   0.000000
    21  H   -0.000005  -0.000001  -0.000023   0.000182   0.000024   0.000000
    22  C    0.000000   0.000000   0.000000  -0.000082   0.000001   0.000000
    23  H    0.000000   0.000000   0.000002  -0.000006   0.000000   0.000000
    24  H    0.000000   0.000000   0.000000   0.000002   0.000000   0.000000
    25  H    0.000000   0.000000   0.000001  -0.000006  -0.000001   0.000000
              7          8          9         10         11         12
     1  C    0.006181  -0.106131   0.003388  -0.000248   0.000532   0.000179
     2  C    0.005274   0.275666  -0.046331   0.004758   0.001508   0.002453
     3  C    0.430670  -0.151957  -0.048551   0.010311   0.009837  -0.002442
     4  N   -0.060598   0.043812   0.004558  -0.000238  -0.000531  -0.000285
     5  H   -0.000137   0.003575  -0.000113  -0.000016   0.000009   0.000004
     6  H   -0.000166  -0.044781  -0.000587   0.001423   0.001079  -0.000170
     7  H    0.661043  -0.061506  -0.003077  -0.000384   0.000416   0.003686
     8  N   -0.061506   7.432193   0.357717  -0.082419  -0.083926  -0.034048
     9  C   -0.003077   0.357717   4.778803   0.376168   0.382566   0.402738
    10  H   -0.000384  -0.082419   0.376168   0.715165  -0.080981  -0.030419
    11  H    0.000416  -0.083926   0.382566  -0.080981   0.715402  -0.033246
    12  H    0.003686  -0.034048   0.402738  -0.030419  -0.033246   0.552890
    13  C   -0.006682   0.003498  -0.000137   0.000018  -0.000013  -0.000004
    14  H    0.007433  -0.000488   0.000001  -0.000006   0.000008  -0.000002
    15  H    0.000222  -0.000208   0.000005  -0.000001   0.000001   0.000000
    16  C   -0.000047   0.000318   0.000004  -0.000002   0.000000   0.000000
    17  H   -0.000011  -0.000088   0.000000   0.000000   0.000000   0.000000
    18  H   -0.000173  -0.000530  -0.000003   0.000003   0.000000   0.000000
    19  C    0.000019   0.000004   0.000000   0.000000   0.000000   0.000000
    20  H    0.000003   0.000000   0.000000   0.000000   0.000000   0.000000
    21  H    0.000001   0.000000   0.000000   0.000000   0.000000   0.000000
    22  C    0.000000   0.000000   0.000000   0.000000   0.000000   0.000000
    23  H    0.000000   0.000000   0.000000   0.000000   0.000000   0.000000
    24  H    0.000000   0.000000   0.000000   0.000000   0.000000   0.000000
    25  H    0.000000   0.000000   0.000000   0.000000   0.000000   0.000000
             13         14         15         16         17         18
     1  C   -0.044973   0.004666   0.001121  -0.002411   0.002315   0.000888
     2  C    0.003889  -0.000030  -0.000357  -0.000211   0.000239   0.000175
     3  C   -0.037851   0.006880   0.006297  -0.008961   0.001144   0.014781
     4  N    0.333169  -0.036499  -0.060265  -0.056138  -0.006428  -0.019271
     5  H   -0.001215   0.000171   0.003654  -0.000164  -0.000294  -0.000095
     6  H   -0.000109   0.000004  -0.000010   0.000001   0.000004   0.000000
     7  H   -0.006682   0.007433   0.000222  -0.000047  -0.000011  -0.000173
     8  N    0.003498  -0.000488  -0.000208   0.000318  -0.000088  -0.000530
     9  C   -0.000137   0.000001   0.000005   0.000004   0.000000  -0.000003
    10  H    0.000018  -0.000006  -0.000001  -0.000002   0.000000   0.000003
    11  H   -0.000013   0.000008   0.000001   0.000000   0.000000   0.000000
    12  H   -0.000004  -0.000002   0.000000   0.000000   0.000000   0.000000
    13  C    4.859635   0.298759   0.370473   0.374632  -0.034714  -0.018772
    14  H    0.298759   0.674331  -0.006727  -0.066666   0.002954  -0.012377
    15  H    0.370473  -0.006727   0.663281  -0.079506  -0.004508   0.002639
    16  C    0.374632  -0.066666  -0.079506   5.180765   0.396325   0.383530
    17  H   -0.034714   0.002954  -0.004508   0.396325   0.588435  -0.025927
    18  H   -0.018772  -0.012377   0.002639   0.383530  -0.025927   0.567544
    19  C   -0.059341   0.002445   0.001357   0.313155  -0.050160  -0.053013
    20  H   -0.003244   0.004496   0.000680  -0.042872   0.004708  -0.003927
    21  H   -0.002890   0.002587   0.005806  -0.050654  -0.004129   0.003274
    22  C    0.003838  -0.000216  -0.000220  -0.053679  -0.003591  -0.003530
    23  H   -0.000061  -0.000008  -0.000006  -0.002801   0.000220   0.002979
    24  H   -0.000088   0.000029   0.000018   0.004148  -0.000134  -0.000264
    25  H   -0.000084  -0.000013   0.000000  -0.002940   0.002855   0.000423
             19         20         21         22         23         24
     1  C   -0.000065  -0.000003  -0.000005   0.000000   0.000000   0.000000
     2  C   -0.000008   0.000000  -0.000001   0.000000   0.000000   0.000000
     3  C   -0.000521  -0.000036  -0.000023   0.000000   0.000002   0.000000
     4  N    0.006860   0.000072   0.000182  -0.000082  -0.000006   0.000002
     5  H    0.000020   0.000000   0.000024   0.000001   0.000000   0.000000
     6  H    0.000000   0.000000   0.000000   0.000000   0.000000   0.000000
     7  H    0.000019   0.000003   0.000001   0.000000   0.000000   0.000000
     8  N    0.000004   0.000000   0.000000   0.000000   0.000000   0.000000
     9  C    0.000000   0.000000   0.000000   0.000000   0.000000   0.000000
    10  H    0.000000   0.000000   0.000000   0.000000   0.000000   0.000000
    11  H    0.000000   0.000000   0.000000   0.000000   0.000000   0.000000
    12  H    0.000000   0.000000   0.000000   0.000000   0.000000   0.000000
    13  C   -0.059341  -0.003244  -0.002890   0.003838  -0.000061  -0.000088
    14  H    0.002445   0.004496   0.002587  -0.000216  -0.000008   0.000029
    15  H    0.001357   0.000680   0.005806  -0.000220  -0.000006   0.000018
    16  C    0.313155  -0.042872  -0.050654  -0.053679  -0.002801   0.004148
    17  H   -0.050160   0.004708  -0.004129  -0.003591   0.000220  -0.000134
    18  H   -0.053013  -0.003927   0.003274  -0.003530   0.002979  -0.000264
    19  C    5.134421   0.397092   0.391882   0.339211  -0.037580  -0.041255
    20  H    0.397092   0.584378  -0.033715  -0.043993  -0.003161  -0.002170
    21  H    0.391882  -0.033715   0.605877  -0.046046   0.004430  -0.001218
    22  C    0.339211  -0.043993  -0.046046   5.105669   0.392391   0.385550
    23  H   -0.037580  -0.003161   0.004430   0.392391   0.558551  -0.032318
    24  H   -0.041255  -0.002170  -0.001218   0.385550  -0.032318   0.594626
    25  H   -0.037854   0.004478  -0.003540   0.391399  -0.030010  -0.032890
             25
     1  C    0.000000
     2  C    0.000000
     3  C    0.000001
     4  N   -0.000006
     5  H   -0.000001
     6  H    0.000000
     7  H    0.000000
     8  N    0.000000
     9  C    0.000000
    10  H    0.000000
    11  H    0.000000
    12  H    0.000000
    13  C   -0.000084
    14  H   -0.000013
    15  H    0.000000
    16  C   -0.002940
    17  H    0.002855
    18  H    0.000423
    19  C   -0.037854
    20  H    0.004478
    21  H   -0.003540
    22  C    0.391399
    23  H   -0.030010
    24  H   -0.032890
    25  H    0.566135
 Mulliken atomic charges:
              1
     1  C   -0.015264
     2  C   -0.035828
     3  C   -0.283324
     4  N   -0.554829
     5  H    0.113693
     6  H    0.111900
     7  H    0.017836
     8  N   -0.550701
     9  C   -0.207147
    10  H    0.086866
    11  H    0.087341
    12  H    0.138666
    13  C   -0.037733
    14  H    0.118269
    15  H    0.096255
    16  C   -0.285829
    17  H    0.130786
    18  H    0.161646
    19  C   -0.306668
    20  H    0.137215
    21  H    0.128159
    22  C   -0.466700
    23  H    0.147380
    24  H    0.125965
    25  H    0.142047
 Sum of Mulliken atomic charges =  -1.00000
 Mulliken charges with hydrogens summed into heavy atoms:
              1
     1  C    0.098429
     2  C    0.076072
     3  C   -0.265488
     4  N   -0.554829
     8  N   -0.550701
     9  C    0.105725
    13  C    0.176790
    16  C    0.006604
    19  C   -0.041294
    22  C   -0.051309
 Sum of Mulliken charges with hydrogens summed into heavy atoms =  -1.00000
 DipInt: DoE/N= T F RetVal/Mat= T F Init=T NMatP=  1 IDeriv=0 Min/MaxMlt=  0  4
 Entering OneElI...
 OneElI was handed    33468670 working-precision words.
 Multipole integrals L=0 to 4 MinM= 0 MaxM= 0.
 Requested accuracy = 0.1000D-12
 PrsmSu:  NPrtUS=   1 ThrOK=F IAlg=1
 PRISM was handed    33286014 working-precision words and  2196 shell-pairs
 IPart=  0 NShTot=        2196 NBatch=          43 AvBLen=        51.1
 Electronic moments (au):
        -78.00000000        128.04144517       -101.45318382         -3.36457725
      -2223.79196774       -342.86622775       -190.70437294         94.16701555
         91.83018704        -36.77642372      12905.61631915       -945.06132257
        -62.41359774        164.69144139      -2559.13739698      -2086.42675333
        463.53424511       -194.37682436        -44.94161794       -240.10581698
    -152771.34665654      -3857.86037859      -1444.88304736       8630.85040276
      15343.76657188        185.91672897       -338.12981496        736.63494288
       -220.88909250      -7604.49980477      -7082.77666210       -772.28815309
      -1481.60802859       -587.82337069        174.61670247
 Electronic spatial extent (au):  <R**2>=           2757.3626
 DipInt: DoE/N= F T RetVal/Mat= T F Init=T NMatP=  1 IDeriv=0 Min/MaxMlt=  0  4
 Nuclear    moments (au):
         77.00000000       -128.58452499         99.36180007          3.35804334
       2163.20581964        286.84162794        137.66586797        -96.20000914
        -90.65248130         38.22601738     -12597.92923763        729.75044024
         57.94809789        -89.52719620       2482.16605933       2073.24124435
       -384.66033050        123.92308523         47.89451366        239.89035922
     143272.30439850       2471.62085508        709.44893071      -8455.05090398
     -15063.49581177        -21.00260533        301.15585569       -559.29229293
        148.39024014       5959.41633676       5495.09282852        421.18810176
       1482.99038719        654.45925391       -115.65560580
 Total      moments (au):
         -1.00000000         -0.54307982         -2.09138376         -0.00653391
        -60.58614810        -56.02459981        -53.03850497         -2.03299360
          1.17770574          1.44959366        307.68708152       -215.31088232
         -4.46549985         75.16424519        -76.97133765        -13.18550898
         78.87391461        -70.45373913          2.95289573         -0.21545776
      -9499.04225804      -1386.23952351       -735.43411665        175.79949878
        280.27076011        164.91412364        -36.97395927        177.34264996
        -72.49885235      -1645.08346801      -1587.68383358       -351.10005133
          1.38235861         66.63588322         58.96109666
 Traceless Quadrup. (au):
         -4.03639714          0.52515115          3.51124599         -2.03299360
          1.17770574          1.44959366
 Charge=             -1.0000 electrons
 Dipole moment (field-independent basis, Debye):
    X=             -1.3804    Y=             -5.3158    Z=             -0.0166  Tot=              5.4921
 Quadrupole moment (field-independent basis, Debye-Ang):
   XX=            -81.4904   YY=            -75.3550   ZZ=            -71.3386
   XY=             -2.7344   XZ=              1.5841   YZ=              1.9498
 Traceless Quadrupole moment (field-independent basis, Debye-Ang):
   XX=             -5.4291   YY=              0.7063   ZZ=              4.7227
   XY=             -2.7344   XZ=              1.5841   YZ=              1.9498
 Octapole moment (field-independent basis, Debye-Ang**2):
  XXX=            218.9998  YYY=           -153.2500  ZZZ=             -3.1784  XYY=             53.4990
  XXY=            -54.7852  XXZ=             -9.3849  XZZ=             56.1394  YZZ=            -50.1463
  YYZ=              2.1018  XYZ=             -0.1534
 Hexadecapole moment (field-independent basis, Debye-Ang**3):
 XXXX=          -3577.7946 YYYY=           -522.1242 ZZZZ=           -276.9997 XXXY=             66.2145
 XXXZ=            105.5634 YYYX=             62.1146 YYYZ=            -13.9262 ZZZX=             66.7957
 ZZZY=            -27.3065 XXYY=           -619.6173 XXZZ=           -597.9978 YYZZ=           -132.2411
 XXYZ=              0.5207 YYXZ=             25.0983 ZZXY=             22.2076
 N-N= 5.324151037126D+02 E-N=-2.059604117394D+03  KE= 4.208914888397D+02
 Entering OneElI...
 OneElI was handed    33403065 working-precision words.
 Calculate electrostatic properties
    NBasis =   180  MinDer = 0  MaxDer = 0
    NGrid  =    25  NMatD  =   1
 Requested accuracy = 0.1000D-12
 PrsmSu:  NPrtUS=   1 ThrOK=F IAlg=1
 PRISM was handed    33234483 working-precision words and  2020 shell-pairs
 IPart=  0 NShTot=       50500 NBatch=        2020 AvBLen=        25.0
 --------------------------------------------------------
       Center         ----      EFG at Nuclei      ----
                      3XX-RR        3YY-RR        3ZZ-RR
 --------------------------------------------------------
     1   Atom        0.140788     -0.065405     -0.075383
     2   Atom        0.126844     -0.071275     -0.055569
     3   Atom       -0.441280     -0.205437      0.646717
     4   Atom       -0.656754     -0.289963      0.946717
     5   Atom        0.026590     -0.082494      0.055904
     6   Atom       -0.109635     -0.069777      0.179412
     7   Atom        0.114333     -0.260306      0.145974
     8   Atom       -0.572593     -0.330830      0.903423
     9   Atom       -0.089204      0.056409      0.032795
    10   Atom        0.124994     -0.044038     -0.080956
    11   Atom       -0.082355      0.163948     -0.081593
    12   Atom        0.153777     -0.236161      0.082384
    13   Atom       -0.134530      0.085004      0.049526
    14   Atom        0.154620     -0.306505      0.151886
    15   Atom        0.133630      0.147530     -0.281160
    16   Atom       -0.042797     -0.007525      0.050322
    17   Atom        0.152126     -0.302620      0.150495
    18   Atom        0.124582      0.138404     -0.262986
    19   Atom        0.046698     -0.014755     -0.031943
    20   Atom        0.151285     -0.299321      0.148036
    21   Atom        0.122022      0.142110     -0.264132
    22   Atom       -0.003076     -0.003319      0.006395
    23   Atom        0.136489      0.141948     -0.278436
    24   Atom       -0.269301      0.120405      0.148896
    25   Atom        0.158308     -0.308112      0.149804
 --------------------------------------------------------
                        XY            XZ            YZ
 --------------------------------------------------------
     1   Atom        0.006133      0.076555      0.016737
     2   Atom       -0.006677      0.064203      0.003836
     3   Atom        0.133578     -0.339084     -0.485716
     4   Atom        0.404861     -0.364966     -0.721515
     5   Atom       -0.183207     -0.141221     -0.193316
     6   Atom        0.257964      0.037707     -0.054811
     7   Atom        0.078386     -0.004284     -0.241848
     8   Atom        0.062820     -0.607898     -0.894760
     9   Atom       -0.062435     -0.079825     -0.025382
    10   Atom        0.092033     -0.104992      0.225483
    11   Atom       -0.022873      0.247545      0.017426
    12   Atom        0.052633      0.021614     -0.186647
    13   Atom        0.063327     -0.026014      0.034698
    14   Atom        0.028402      0.004953     -0.065412
    15   Atom       -0.019723     -0.109538     -0.085697
    16   Atom        0.049348     -0.036846     -0.006940
    17   Atom        0.036734      0.007504     -0.067252
    18   Atom       -0.021010     -0.112858     -0.083444
    19   Atom       -0.038546      0.035875      0.019830
    20   Atom        0.039481      0.009094     -0.061784
    21   Atom       -0.025482     -0.115841     -0.081334
    22   Atom        0.012692     -0.012935     -0.004925
    23   Atom       -0.021741     -0.097386     -0.086574
    24   Atom        0.133799     -0.073888      0.025069
    25   Atom        0.016263      0.004784     -0.063667
 --------------------------------------------------------


 ---------------------------------------------------------------------------------
              Nuclear Quadrupole in Principal Axis System
 ---------------------------------------------------------------------------------

       Atom             a.u.   MegaHertz   Gauss  10(-4) cm-1        Axes

              Baa    -0.1048   -14.068    -5.020    -4.693 -0.2721 -0.3398  0.9003
     1 C(13)  Bbb    -0.0608    -8.163    -2.913    -2.723 -0.1464  0.9393  0.3103
              Bcc     0.1657    22.231     7.933     7.416  0.9511  0.0474  0.3053
 
              Baa    -0.0798   -10.702    -3.819    -3.570 -0.2620 -0.5616  0.7848
     2 C(13)  Bbb    -0.0675    -9.064    -3.234    -3.024 -0.1505  0.8270  0.5416
              Bcc     0.1473    19.766     7.053     6.593  0.9533 -0.0238  0.3012
 
              Baa    -0.5385   -72.262   -25.785   -24.104  0.9564  0.0384  0.2894
     3 C(13)  Bbb    -0.4227   -56.726   -20.241   -18.922 -0.1486  0.9173  0.3695
              Bcc     0.9612   128.988    46.026    43.026 -0.2512 -0.3964  0.8830
 
              Baa    -0.9240   -35.637   -12.716   -11.887  0.8008 -0.5945 -0.0730
     4 N(14)  Bbb    -0.4778   -18.427    -6.575    -6.147  0.5493  0.6803  0.4853
              Bcc     1.4018    54.064    19.291    18.034 -0.2388 -0.4287  0.8713
 
              Baa    -0.3577  -190.839   -68.096   -63.657  0.5155  0.6952  0.5010
     5 H(1)   Bbb     0.1631    87.008    31.047    29.023  0.8205 -0.5690 -0.0548
              Bcc     0.1946   103.832    37.050    34.634 -0.2470 -0.4393  0.8637
 
              Baa    -0.3563  -190.109   -67.836   -63.414  0.7262 -0.6768 -0.1204
     6 H(1)   Bbb     0.1610    85.914    30.656    28.658  0.6395  0.6008  0.4796
              Bcc     0.1953   104.195    37.179    34.756 -0.2523 -0.4253  0.8692
 
              Baa    -0.3827  -204.188   -72.859   -68.110 -0.1386  0.9010  0.4111
     7 H(1)   Bbb     0.1147    61.178    21.830    20.407  0.9595  0.0194  0.2810
              Bcc     0.2680   143.011    51.030    47.703 -0.2452 -0.4334  0.8672
 
              Baa    -0.9864   -38.043   -13.575   -12.690  0.6261  0.6074  0.4890
     8 N(14)  Bbb    -0.5417   -20.893    -7.455    -6.969  0.7340 -0.6708 -0.1066
              Bcc     1.5281    58.937    21.030    19.659 -0.2633 -0.4256  0.8658
 
              Baa    -0.1505   -20.198    -7.207    -6.737  0.8555  0.3091  0.4154
     9 C(13)  Bbb     0.0697     9.354     3.338     3.120 -0.2505 -0.4550  0.8545
              Bcc     0.0808    10.843     3.869     3.617 -0.4531  0.8351  0.3119
 
              Baa    -0.3314  -176.830   -63.097   -58.984  0.2925 -0.6465  0.7046
    10 H(1)   Bbb     0.1619    86.358    30.815    28.806  0.4727  0.7383  0.4812
              Bcc     0.1696    90.472    32.283    30.178  0.8313 -0.1923 -0.5215
 
              Baa    -0.3312  -176.691   -63.048   -58.938  0.7068  0.0575 -0.7051
    11 H(1)   Bbb     0.1618    86.305    30.796    28.788  0.4712  0.7052  0.5298
              Bcc     0.1694    90.385    32.252    30.149 -0.5276  0.7067 -0.4713
 
              Baa    -0.3289  -175.512   -62.627   -58.545 -0.1170  0.9021  0.4155
    12 H(1)   Bbb     0.1598    85.265    30.425    28.441  0.9571 -0.0094  0.2897
              Bcc     0.1691    90.247    32.202    30.103 -0.2652 -0.4315  0.8622
 
              Baa    -0.1572   -21.093    -7.527    -7.036  0.9482 -0.2716  0.1649
    13 C(13)  Bbb     0.0433     5.807     2.072     1.937 -0.2580 -0.3554  0.8984
              Bcc     0.1139    15.287     5.455     5.099  0.1854  0.8944  0.4071
 
              Baa    -0.3174  -169.358   -60.431   -56.492 -0.0609  0.9885  0.1384
    14 H(1)   Bbb     0.1562    83.333    29.735    27.797  0.9789  0.0863 -0.1855
              Bcc     0.1612    86.025    30.696    28.695  0.1953 -0.1242  0.9729
 
              Baa    -0.3247  -173.235   -61.814   -57.785  0.2360  0.1831  0.9544
    15 H(1)   Bbb     0.1602    85.481    30.502    28.513  0.9197 -0.3592 -0.1585
              Bcc     0.1645    87.753    31.313    29.271  0.3138  0.9151 -0.2531
 
              Baa    -0.0830   -11.131    -3.972    -3.713  0.8280 -0.5232  0.2017
    16 C(13)  Bbb     0.0116     1.561     0.557     0.521  0.3739  0.7833  0.4966
              Bcc     0.0713     9.570     3.415     3.192 -0.4178 -0.3358  0.8442
 
              Baa    -0.3154  -168.276   -60.045   -56.131 -0.0798  0.9864  0.1437
    17 H(1)   Bbb     0.1543    82.354    29.386    27.470  0.9375  0.1233 -0.3256
              Bcc     0.1610    85.922    30.659    28.661  0.3388 -0.1087  0.9345
 
              Baa    -0.3100  -165.382   -59.012   -55.166  0.2554  0.1885  0.9483
    18 H(1)   Bbb     0.1535    81.922    29.232    27.326 -0.7017  0.7108  0.0477
              Bcc     0.1564    83.460    29.781    27.839  0.6651  0.6776 -0.3138
 
              Baa    -0.0682    -9.152    -3.266    -3.053 -0.4125 -0.5631  0.7161
    19 C(13)  Bbb    -0.0031    -0.421    -0.150    -0.140  0.1099  0.7496  0.6528
              Bcc     0.0713     9.573     3.416     3.193  0.9043 -0.3479  0.2473
 
              Baa    -0.3112  -166.051   -59.251   -55.389 -0.0869  0.9871  0.1345
    20 H(1)   Bbb     0.1518    81.009    28.906    27.022  0.7757  0.1518 -0.6126
              Bcc     0.1594    85.042    30.345    28.367  0.6251 -0.0511  0.7789
 
              Baa    -0.3122  -166.570   -59.436   -55.562  0.2634  0.1843  0.9469
    21 H(1)   Bbb     0.1527    81.453    29.065    27.170  0.8335  0.4507 -0.3196
              Bcc     0.1595    85.116    30.372    28.392 -0.4857  0.8734 -0.0349
 
              Baa    -0.0176    -2.365    -0.844    -0.789  0.7630 -0.5762  0.2928
    22 C(13)  Bbb    -0.0035    -0.463    -0.165    -0.155  0.2569  0.6861  0.6807
              Bcc     0.0211     2.828     1.009     0.943 -0.5931 -0.4442  0.6716
 
              Baa    -0.3175  -169.396   -60.445   -56.505  0.2146  0.1907  0.9579
    23 H(1)   Bbb     0.1564    83.423    29.767    27.827  0.7373  0.6116 -0.2869
              Bcc     0.1611    85.974    30.678    28.678 -0.6405  0.7679 -0.0093
 
              Baa    -0.3237  -172.705   -61.626   -57.608  0.9421 -0.2930  0.1628
    24 H(1)   Bbb     0.1598    85.274    30.428    28.444 -0.3181 -0.6278  0.7104
              Bcc     0.1639    87.431    31.198    29.164  0.1060  0.7211  0.6847
 
              Baa    -0.3174  -169.344   -60.426   -56.487 -0.0352  0.9902  0.1353
    25 H(1)   Bbb     0.1561    83.312    29.728    27.790 -0.6778 -0.1232  0.7249
              Bcc     0.1612    86.032    30.698    28.697  0.7344 -0.0662  0.6755
 

 ---------------------------------------------------------------------------------

 No NMR shielding tensors so no spin-rotation constants.
 Leave Link  601 at Thu Jun 28 09:33:11 2018, MaxMem=   33554432 cpu:       0.1
 Merz-Kollman atomic radii used.
 Atom Element Radius
    1     6    1.50
    2     6    1.50
    3     6    1.50
    4     7    1.50
    5     1    1.20
    6     1    1.20
    7     1    1.20
    8     7    1.50
    9     6    1.50
   10     1    1.20
   11     1    1.20
   12     1    1.20
   13     6    1.50
   14     1    1.20
   15     1    1.20
   16     6    1.50
   17     1    1.20
   18     1    1.20
   19     6    1.50
   20     1    1.20
   21     1    1.20
   22     6    1.50
   23     1    1.20
   24     1    1.20
   25     1    1.20
 Generate VDW surfaces: Layer= 4 Dens= 6 Start= 1.400 Inc= 0.200

 **********************************************************************

            Electrostatic Properties Using The SCF Density

 **********************************************************************

       Atomic Center    1 is at   0.150000 -0.353000 -0.895000
       Atomic Center    2 is at   1.432000 -0.337000 -0.501000
       Atomic Center    3 is at   0.506000  1.527000  0.142000
       Atomic Center    4 is at  -0.418000  0.832000 -0.482000
       Atomic Center    5 is at  -0.405000 -1.091000 -1.431000
       Atomic Center    6 is at   2.213000 -1.056000 -0.626000
       Atomic Center    7 is at   0.360000  2.495000  0.574000
       Atomic Center    8 is at   1.639000  0.858000  0.153000
       Atomic Center    9 is at   2.904000  1.301000  0.746000
       Atomic Center   10 is at   3.207000  0.598000  1.507000
       Atomic Center   11 is at   3.657000  1.363000 -0.025000
       Atomic Center   12 is at   2.761000  2.274000  1.189000
       Atomic Center   13 is at  -1.827000  1.232000 -0.676000
       Atomic Center   14 is at  -1.872000  2.302000 -0.526000
       Atomic Center   15 is at  -2.068000  1.036000 -1.712000
       Atomic Center   16 is at  -2.772000  0.498000  0.272000
       Atomic Center   17 is at  -2.676000 -0.573000  0.122000
       Atomic Center   18 is at  -2.477000  0.702000  1.298000
       Atomic Center   19 is at  -4.228000  0.922000  0.052000
       Atomic Center   20 is at  -4.318000  1.996000  0.197000
       Atomic Center   21 is at  -4.510000  0.723000 -0.979000
       Atomic Center   22 is at  -5.190000  0.199000  0.993000
       Atomic Center   23 is at  -4.954000  0.405000  2.032000
       Atomic Center   24 is at  -6.210000  0.518000  0.815000
       Atomic Center   25 is at  -5.149000 -0.876000  0.847000
      ESP Fit Center   26 is at   0.150000 -0.353000  1.205000
      ESP Fit Center   27 is at  -0.054845 -0.707802  1.164649
      ESP Fit Center   28 is at  -0.545969 -0.754818  1.045147
      ESP Fit Center   29 is at  -0.251818 -1.048969  1.045147
      ESP Fit Center   30 is at   0.150000 -1.156635  1.045147
      ESP Fit Center   31 is at  -0.841946 -0.967187  0.851086
      ESP Fit Center   32 is at  -0.553092 -1.284045  0.851086
      ESP Fit Center   33 is at  -0.169282 -1.475160  0.851086
      ESP Fit Center   34 is at   0.257649 -1.514721  0.851086
      ESP Fit Center   35 is at  -1.099198 -1.155811  0.589924
      ESP Fit Center   36 is at  -0.822419 -1.475231  0.589924
      ESP Fit Center   37 is at  -0.466860 -1.703735  0.589924
      ESP Fit Center   38 is at  -0.061327 -1.822810  0.589924
      ESP Fit Center   39 is at   0.361327 -1.822810  0.589924
      ESP Fit Center   40 is at  -1.156964 -1.510869  0.271697
      ESP Fit Center   41 is at  -0.841890 -1.790001  0.271697
      ESP Fit Center   42 is at  -0.469171 -1.985619  0.271697
      ESP Fit Center   43 is at  -0.060467 -2.086355  0.271697
      ESP Fit Center   44 is at   0.360467 -2.086355  0.271697
      ESP Fit Center   45 is at  -1.258538 -1.687238 -0.091365
      ESP Fit Center   46 is at  -0.938785 -1.958838 -0.091365
      ESP Fit Center   47 is at  -0.568122 -2.155351 -0.091365
      ESP Fit Center   48 is at  -0.163881 -2.267589 -0.091365
      ESP Fit Center   49 is at   0.255037 -2.290302 -0.091365
      ESP Fit Center   50 is at   0.045680 -2.410006 -0.485310
      ESP Fit Center   51 is at   0.461888 -2.388898 -0.485310
      ESP Fit Center   52 is at   0.559690 -2.412649 -0.895000
      ESP Fit Center   53 is at   0.865327 -2.284440 -1.304690
      ESP Fit Center   54 is at   1.058781 -2.067143 -1.698635
      ESP Fit Center   55 is at   1.141890  1.084001 -2.061697
      ESP Fit Center   56 is at   1.141890 -1.790001 -2.061697
      ESP Fit Center   57 is at   1.122419  0.769231 -2.379924
      ESP Fit Center   58 is at   0.766860  0.997735 -2.379924
      ESP Fit Center   59 is at   1.122419 -1.475231 -2.379924
      ESP Fit Center   60 is at   1.316697 -0.353000 -2.641086
      ESP Fit Center   61 is at   1.237913  0.068460 -2.641086
      ESP Fit Center   62 is at   1.012200  0.432999 -2.641086
      ESP Fit Center   63 is at   0.670042  0.691385 -2.641086
      ESP Fit Center   64 is at   0.257649  0.808721 -2.641086
      ESP Fit Center   65 is at  -0.169282  0.769160 -2.641086
      ESP Fit Center   66 is at  -0.553092  0.578045 -2.641086
      ESP Fit Center   67 is at  -0.841946  0.261187 -2.641086
      ESP Fit Center   68 is at   1.012200 -1.138999 -2.641086
      ESP Fit Center   69 is at   1.237913 -0.774460 -2.641086
      ESP Fit Center   70 is at   0.953635 -0.353000 -2.835147
      ESP Fit Center   71 is at   0.845969  0.048818 -2.835147
      ESP Fit Center   72 is at   0.551818  0.342969 -2.835147
      ESP Fit Center   73 is at   0.150000  0.450635 -2.835147
      ESP Fit Center   74 is at  -0.251818  0.342969 -2.835147
      ESP Fit Center   75 is at  -0.545969  0.048818 -2.835147
      ESP Fit Center   76 is at   0.551818 -1.048969 -2.835147
      ESP Fit Center   77 is at   0.845969 -0.754818 -2.835147
      ESP Fit Center   78 is at   0.559690 -0.353000 -2.954649
      ESP Fit Center   79 is at   0.354845  0.001802 -2.954649
      ESP Fit Center   80 is at  -0.054845  0.001802 -2.954649
      ESP Fit Center   81 is at  -0.259690 -0.353000 -2.954649
      ESP Fit Center   82 is at   0.354845 -0.707802 -2.954649
      ESP Fit Center   83 is at   0.150000 -0.353000 -2.995000
      ESP Fit Center   84 is at   1.227155 -0.691802  1.558649
      ESP Fit Center   85 is at   0.736031 -0.738818  1.439147
      ESP Fit Center   86 is at   1.030182 -1.032969  1.439147
      ESP Fit Center   87 is at   1.432000 -1.140635  1.439147
      ESP Fit Center   88 is at   1.833818 -1.032969  1.439147
      ESP Fit Center   89 is at   2.127969 -0.738818  1.439147
      ESP Fit Center   90 is at   0.285168 -0.551380  1.245086
      ESP Fit Center   91 is at   0.440054 -0.951187  1.245086
      ESP Fit Center   92 is at   0.728908 -1.268045  1.245086
      ESP Fit Center   93 is at   1.112718 -1.459160  1.245086
      ESP Fit Center   94 is at   1.539649 -1.498721  1.245086
      ESP Fit Center   95 is at   1.952042 -1.381385  1.245086
      ESP Fit Center   96 is at   2.294200 -1.122999  1.245086
      ESP Fit Center   97 is at   0.459581 -1.459231  0.983924
      ESP Fit Center   98 is at   0.815140 -1.687735  0.983924
      ESP Fit Center   99 is at   1.220673 -1.806810  0.983924
      ESP Fit Center  100 is at   1.643327 -1.806810  0.983924
      ESP Fit Center  101 is at   2.048860 -1.687735  0.983924
      ESP Fit Center  102 is at   0.440110 -1.774001  0.665697
      ESP Fit Center  103 is at   0.812829 -1.969619  0.665697
      ESP Fit Center  104 is at   1.221533 -2.070355  0.665697
      ESP Fit Center  105 is at   1.642467 -2.070355  0.665697
      ESP Fit Center  106 is at   0.713878 -2.139351  0.302635
      ESP Fit Center  107 is at   1.118119 -2.251589  0.302635
      ESP Fit Center  108 is at   0.915744 -2.330899 -0.091310
      ESP Fit Center  109 is at   1.327680 -2.394006 -0.091310
      ESP Fit Center  110 is at   1.022310 -2.396649 -0.501000
      ESP Fit Center  111 is at   0.915744 -2.330899 -0.910690
      ESP Fit Center  112 is at   3.326787  0.080074 -1.304635
      ESP Fit Center  113 is at   1.118119 -2.251589 -1.304635
      ESP Fit Center  114 is at   3.127348  0.080866 -1.667697
      ESP Fit Center  115 is at   2.978083  0.474447 -1.667697
      ESP Fit Center  116 is at   2.738964  0.820869 -1.667697
      ESP Fit Center  117 is at   1.221533 -2.070355 -1.667697
      ESP Fit Center  118 is at   2.916924 -0.337000 -1.985924
      ESP Fit Center  119 is at   2.856774  0.081352 -1.985924
      ESP Fit Center  120 is at   2.681198  0.465811 -1.985924
      ESP Fit Center  121 is at   2.404419  0.785231 -1.985924
      ESP Fit Center  122 is at   2.048860  1.013735 -1.985924
      ESP Fit Center  123 is at   1.643327  1.132810 -1.985924
      ESP Fit Center  124 is at   1.220673  1.132810 -1.985924
      ESP Fit Center  125 is at   1.220673 -1.806810 -1.985924
      ESP Fit Center  126 is at   2.598697 -0.337000 -2.247086
      ESP Fit Center  127 is at   2.519913  0.084460 -2.247086
      ESP Fit Center  128 is at   2.294200  0.448999 -2.247086
      ESP Fit Center  129 is at   1.952042  0.707385 -2.247086
      ESP Fit Center  130 is at   1.539649  0.824721 -2.247086
      ESP Fit Center  131 is at   1.539649 -1.498721 -2.247086
      ESP Fit Center  132 is at   2.235635 -0.337000 -2.441147
      ESP Fit Center  133 is at   2.127969  0.064818 -2.441147
      ESP Fit Center  134 is at   1.833818  0.358969 -2.441147
      ESP Fit Center  135 is at   1.432000  0.466635 -2.441147
      ESP Fit Center  136 is at   1.432000 -1.140635 -2.441147
      ESP Fit Center  137 is at   1.833818 -1.032969 -2.441147
      ESP Fit Center  138 is at   2.127969 -0.738818 -2.441147
      ESP Fit Center  139 is at   1.841690 -0.337000 -2.560649
      ESP Fit Center  140 is at   1.636845  0.017802 -2.560649
      ESP Fit Center  141 is at   1.636845 -0.691802 -2.560649
      ESP Fit Center  142 is at   1.432000 -0.337000 -2.601000
      ESP Fit Center  143 is at   0.506000  1.527000  2.242000
      ESP Fit Center  144 is at   0.915690  1.527000  2.201649
      ESP Fit Center  145 is at   0.710845  1.881802  2.201649
      ESP Fit Center  146 is at   0.301155  1.881802  2.201649
      ESP Fit Center  147 is at   0.096310  1.527000  2.201649
      ESP Fit Center  148 is at   0.301155  1.172198  2.201649
      ESP Fit Center  149 is at   0.710845  1.172198  2.201649
      ESP Fit Center  150 is at   1.201969  1.928818  2.082147
      ESP Fit Center  151 is at  -0.189969  1.928818  2.082147
      ESP Fit Center  152 is at  -0.297635  1.527000  2.082147
      ESP Fit Center  153 is at  -0.189969  1.125182  2.082147
      ESP Fit Center  154 is at   0.104182  0.831031  2.082147
      ESP Fit Center  155 is at   0.506000  0.723365  2.082147
      ESP Fit Center  156 is at  -0.640832  1.741380  1.888086
      ESP Fit Center  157 is at  -0.640832  1.312620  1.888086
      ESP Fit Center  158 is at  -0.485946  0.912813  1.888086
      ESP Fit Center  159 is at  -0.197092  0.595955  1.888086
      ESP Fit Center  160 is at   0.186718  0.404840  1.888086
      ESP Fit Center  161 is at  -0.918774  1.945352  1.626924
      ESP Fit Center  162 is at  -0.978924  1.527000  1.626924
      ESP Fit Center  163 is at  -0.743198  0.724189  1.626924
      ESP Fit Center  164 is at  -0.466419  0.404769  1.626924
      ESP Fit Center  165 is at  -0.110860  0.176265  1.626924
      ESP Fit Center  166 is at   0.294673  0.057190  1.626924
      ESP Fit Center  167 is at  -1.189348  1.944866  1.308697
      ESP Fit Center  168 is at   1.925030  3.019819 -0.267690
      ESP Fit Center  169 is at   1.595480  3.274909 -0.267690
      ESP Fit Center  170 is at   1.762025  3.005706 -0.661635
      ESP Fit Center  171 is at   1.414781  3.241143 -0.661635
      ESP Fit Center  172 is at   1.812964  2.684869 -1.024697
      ESP Fit Center  173 is at   1.497890  2.964001 -1.024697
      ESP Fit Center  174 is at   1.125171  3.159619 -1.024697
      ESP Fit Center  175 is at   0.716467  3.260355 -1.024697
      ESP Fit Center  176 is at   0.295533  3.260355 -1.024697
      ESP Fit Center  177 is at  -0.113171  3.159619 -1.024697
      ESP Fit Center  178 is at   1.755198  2.329811 -1.342924
      ESP Fit Center  179 is at   1.478419  2.649231 -1.342924
      ESP Fit Center  180 is at   1.122860  2.877735 -1.342924
      ESP Fit Center  181 is at   0.717327  2.996810 -1.342924
      ESP Fit Center  182 is at   0.294673  2.996810 -1.342924
      ESP Fit Center  183 is at  -0.110860  2.877735 -1.342924
      ESP Fit Center  184 is at   1.368200  2.312999 -1.604086
      ESP Fit Center  185 is at   1.026042  2.571385 -1.604086
      ESP Fit Center  186 is at   0.613649  2.688721 -1.604086
      ESP Fit Center  187 is at   0.186718  2.649160 -1.604086
      ESP Fit Center  188 is at   1.201969  1.928818 -1.798147
      ESP Fit Center  189 is at   0.907818  2.222969 -1.798147
      ESP Fit Center  190 is at   0.506000  2.330635 -1.798147
      ESP Fit Center  191 is at   0.710845  1.881802 -1.917649
      ESP Fit Center  192 is at  -0.622845  0.477198  1.577649
      ESP Fit Center  193 is at  -0.819818  0.136031  1.458147
      ESP Fit Center  194 is at  -0.418000  0.028365  1.458147
      ESP Fit Center  195 is at  -0.737282 -0.290160  1.264086
      ESP Fit Center  196 is at  -0.310351 -0.329721  1.264086
      ESP Fit Center  197 is at   0.102042 -0.212385  1.264086
      ESP Fit Center  198 is at  -1.034860 -0.518735  1.002924
      ESP Fit Center  199 is at  -0.207533  2.565355 -1.648697
      ESP Fit Center  200 is at   1.006774  1.250352 -1.966924
      ESP Fit Center  201 is at   0.831198  1.634811 -1.966924
      ESP Fit Center  202 is at   0.554419  1.954231 -1.966924
      ESP Fit Center  203 is at   0.198860  2.182735 -1.966924
      ESP Fit Center  204 is at  -0.206673  2.301810 -1.966924
      ESP Fit Center  205 is at   0.669913  1.253460 -2.228086
      ESP Fit Center  206 is at   0.444200  1.617999 -2.228086
      ESP Fit Center  207 is at   0.102042  1.876385 -2.228086
      ESP Fit Center  208 is at  -0.310351  1.993721 -2.228086
      ESP Fit Center  209 is at   0.277969  1.233818 -2.422147
      ESP Fit Center  210 is at  -0.016182  1.527969 -2.422147
      ESP Fit Center  211 is at  -0.418000  1.635635 -2.422147
      ESP Fit Center  212 is at  -0.213155  1.186802 -2.541649
      ESP Fit Center  213 is at  -0.418000  0.832000 -2.582000
      ESP Fit Center  214 is at  -1.415006 -1.716370 -0.243061
      ESP Fit Center  215 is at  -1.120893 -2.038996 -0.243061
      ESP Fit Center  216 is at  -0.730095 -2.233591 -0.243061
      ESP Fit Center  217 is at  -1.471534 -2.080599 -0.591000
      ESP Fit Center  218 is at  -1.132461 -2.351000 -0.591000
      ESP Fit Center  219 is at  -0.728751 -2.509445 -0.591000
      ESP Fit Center  220 is at  -0.296273 -2.541854 -0.591000
      ESP Fit Center  221 is at   0.126543 -2.445349 -0.591000
      ESP Fit Center  222 is at  -1.810347 -1.902378 -0.996184
      ESP Fit Center  223 is at  -1.552461 -2.238461 -0.996184
      ESP Fit Center  224 is at  -1.216378 -2.496347 -0.996184
      ESP Fit Center  225 is at  -0.825000 -2.658461 -0.996184
      ESP Fit Center  226 is at  -0.405000 -2.713755 -0.996184
      ESP Fit Center  227 is at   0.015000 -2.658461 -0.996184
      ESP Fit Center  228 is at   0.406378 -2.496347 -0.996184
      ESP Fit Center  229 is at  -2.071753 -0.880440 -1.431000
      ESP Fit Center  230 is at  -2.071753 -1.301560 -1.431000
      ESP Fit Center  231 is at  -1.967024 -1.709449 -1.431000
      ESP Fit Center  232 is at  -1.764149 -2.078479 -1.431000
      ESP Fit Center  233 is at  -1.475872 -2.385462 -1.431000
      ESP Fit Center  234 is at  -1.120309 -2.611109 -1.431000
      ESP Fit Center  235 is at  -0.719801 -2.741243 -1.431000
      ESP Fit Center  236 is at  -0.299512 -2.767685 -1.431000
      ESP Fit Center  237 is at   0.114149 -2.688775 -1.431000
      ESP Fit Center  238 is at   0.495189 -2.509471 -1.431000
      ESP Fit Center  239 is at  -1.972461 -0.671000 -1.865816
      ESP Fit Center  240 is at  -2.027755 -1.091000 -1.865816
      ESP Fit Center  241 is at  -1.972461 -1.511000 -1.865816
      ESP Fit Center  242 is at  -1.810347 -1.902378 -1.865816
      ESP Fit Center  243 is at  -1.552461 -2.238461 -1.865816
      ESP Fit Center  244 is at  -1.216378 -2.496347 -1.865816
      ESP Fit Center  245 is at  -0.825000 -2.658461 -1.865816
      ESP Fit Center  246 is at  -0.405000 -2.713755 -1.865816
      ESP Fit Center  247 is at   0.015000 -2.658461 -1.865816
      ESP Fit Center  248 is at   0.406378 -2.496347 -1.865816
      ESP Fit Center  249 is at   0.742461 -2.238461 -1.865816
      ESP Fit Center  250 is at  -1.843672 -0.874155 -2.271000
      ESP Fit Center  251 is at  -1.843672 -1.307845 -2.271000
      ESP Fit Center  252 is at  -1.715840 -1.722267 -2.271000
      ESP Fit Center  253 is at  -1.471534 -2.080599 -2.271000
      ESP Fit Center  254 is at  -1.132461 -2.351000 -2.271000
      ESP Fit Center  255 is at  -0.728751 -2.509445 -2.271000
      ESP Fit Center  256 is at  -0.296273 -2.541854 -2.271000
      ESP Fit Center  257 is at   0.126543 -2.445349 -2.271000
      ESP Fit Center  258 is at   0.502129 -2.228504 -2.271000
      ESP Fit Center  259 is at   0.797114 -1.910587 -2.271000
      ESP Fit Center  260 is at  -1.120893 -0.143004 -2.618939
      ESP Fit Center  261 is at  -1.415006 -0.465630 -2.618939
      ESP Fit Center  262 is at  -1.572712 -0.872717 -2.618939
      ESP Fit Center  263 is at  -1.572712 -1.309283 -2.618939
      ESP Fit Center  264 is at  -1.415006 -1.716370 -2.618939
      ESP Fit Center  265 is at  -1.120893 -2.038996 -2.618939
      ESP Fit Center  266 is at  -0.730095 -2.233591 -2.618939
      ESP Fit Center  267 is at  -0.295391 -2.273872 -2.618939
      ESP Fit Center  268 is at   0.124510 -2.154400 -2.618939
      ESP Fit Center  269 is at   0.472898 -1.891310 -2.618939
      ESP Fit Center  270 is at   0.702720 -1.520133 -2.618939
      ESP Fit Center  271 is at   0.435000 -1.091000 -2.885923
      ESP Fit Center  272 is at  -0.825000 -0.363539 -2.885923
      ESP Fit Center  273 is at  -1.132461 -0.671000 -2.885923
      ESP Fit Center  274 is at  -1.245000 -1.091000 -2.885923
      ESP Fit Center  275 is at  -1.132461 -1.511000 -2.885923
      ESP Fit Center  276 is at  -0.825000 -1.818461 -2.885923
      ESP Fit Center  277 is at  -0.405000 -1.931000 -2.885923
      ESP Fit Center  278 is at   0.015000 -1.818461 -2.885923
      ESP Fit Center  279 is at   0.322461 -1.511000 -2.885923
      ESP Fit Center  280 is at   0.029816 -1.091000 -3.053755
      ESP Fit Center  281 is at  -0.187592 -0.714438 -3.053755
      ESP Fit Center  282 is at  -0.622408 -0.714438 -3.053755
      ESP Fit Center  283 is at  -0.839816 -1.091000 -3.053755
      ESP Fit Center  284 is at  -0.622408 -1.467562 -3.053755
      ESP Fit Center  285 is at  -0.187592 -1.467562 -3.053755
      ESP Fit Center  286 is at  -0.405000 -1.091000 -3.111000
      ESP Fit Center  287 is at   2.430408 -1.432562  0.996755
      ESP Fit Center  288 is at   3.053000 -1.056000  0.828923
      ESP Fit Center  289 is at   2.213000 -1.896000  0.828923
      ESP Fit Center  290 is at   2.633000 -1.783461  0.828923
      ESP Fit Center  291 is at   2.940461 -1.476000  0.828923
      ESP Fit Center  292 is at   3.400939 -1.056000  0.561939
      ESP Fit Center  293 is at   1.887905 -2.198591  0.561939
      ESP Fit Center  294 is at   2.322609 -2.238872  0.561939
      ESP Fit Center  295 is at   2.742510 -2.119400  0.561939
      ESP Fit Center  296 is at   3.090898 -1.856310  0.561939
      ESP Fit Center  297 is at   3.320720 -1.485133  0.561939
      ESP Fit Center  298 is at   3.667923 -1.056000  0.214000
      ESP Fit Center  299 is at   3.603285 -0.627154  0.214000
      ESP Fit Center  300 is at   1.485539 -2.316000  0.214000
      ESP Fit Center  301 is at   1.889249 -2.474445  0.214000
      ESP Fit Center  302 is at   2.321727 -2.506854  0.214000
      ESP Fit Center  303 is at   2.744543 -2.410349  0.214000
      ESP Fit Center  304 is at   3.120129 -2.193504  0.214000
      ESP Fit Center  305 is at   3.415114 -1.875587  0.214000
      ESP Fit Center  306 is at   3.603285 -1.484846  0.214000
      ESP Fit Center  307 is at   3.835755 -1.056000 -0.191184
      ESP Fit Center  308 is at   3.780461 -0.636000 -0.191184
      ESP Fit Center  309 is at   1.401622 -2.461347 -0.191184
      ESP Fit Center  310 is at   1.793000 -2.623461 -0.191184
      ESP Fit Center  311 is at   2.213000 -2.678755 -0.191184
      ESP Fit Center  312 is at   2.633000 -2.623461 -0.191184
      ESP Fit Center  313 is at   3.024378 -2.461347 -0.191184
      ESP Fit Center  314 is at   3.360461 -2.203461 -0.191184
      ESP Fit Center  315 is at   3.618347 -1.867378 -0.191184
      ESP Fit Center  316 is at   3.780461 -1.476000 -0.191184
      ESP Fit Center  317 is at   3.893000 -1.056000 -0.626000
      ESP Fit Center  318 is at   3.840220 -0.638201 -0.626000
      ESP Fit Center  319 is at   3.685195 -0.246654 -0.626000
      ESP Fit Center  320 is at   1.497691 -2.576109 -0.626000
      ESP Fit Center  321 is at   1.898199 -2.706243 -0.626000
      ESP Fit Center  322 is at   2.318488 -2.732685 -0.626000
      ESP Fit Center  323 is at   2.732149 -2.653775 -0.626000
      ESP Fit Center  324 is at   3.113189 -2.474471 -0.626000
      ESP Fit Center  325 is at   3.437667 -2.206039 -0.626000
      ESP Fit Center  326 is at   3.685195 -1.865346 -0.626000
      ESP Fit Center  327 is at   3.840220 -1.473799 -0.626000
      ESP Fit Center  328 is at   3.835755 -1.056000 -1.060816
      ESP Fit Center  329 is at   3.780461 -0.636000 -1.060816
      ESP Fit Center  330 is at   3.618347 -0.244622 -1.060816
      ESP Fit Center  331 is at   1.401622 -2.461347 -1.060816
      ESP Fit Center  332 is at   1.793000 -2.623461 -1.060816
      ESP Fit Center  333 is at   2.213000 -2.678755 -1.060816
      ESP Fit Center  334 is at   2.633000 -2.623461 -1.060816
      ESP Fit Center  335 is at   3.024378 -2.461347 -1.060816
      ESP Fit Center  336 is at   3.360461 -2.203461 -1.060816
      ESP Fit Center  337 is at   3.618347 -1.867378 -1.060816
      ESP Fit Center  338 is at   3.780461 -1.476000 -1.060816
      ESP Fit Center  339 is at   3.667923 -1.056000 -1.466000
      ESP Fit Center  340 is at   3.603285 -0.627154 -1.466000
      ESP Fit Center  341 is at   3.415114 -0.236413 -1.466000
      ESP Fit Center  342 is at   1.485539 -2.316000 -1.466000
      ESP Fit Center  343 is at   1.889249 -2.474445 -1.466000
      ESP Fit Center  344 is at   2.321727 -2.506854 -1.466000
      ESP Fit Center  345 is at   2.744543 -2.410349 -1.466000
      ESP Fit Center  346 is at   3.120129 -2.193504 -1.466000
      ESP Fit Center  347 is at   3.415114 -1.875587 -1.466000
      ESP Fit Center  348 is at   3.603285 -1.484846 -1.466000
      ESP Fit Center  349 is at   3.400939 -1.056000 -1.813939
      ESP Fit Center  350 is at   3.320720 -0.626867 -1.813939
      ESP Fit Center  351 is at   3.090898 -0.255690 -1.813939
      ESP Fit Center  352 is at   1.497107 -2.003996 -1.813939
      ESP Fit Center  353 is at   1.887905 -2.198591 -1.813939
      ESP Fit Center  354 is at   2.322609 -2.238872 -1.813939
      ESP Fit Center  355 is at   2.742510 -2.119400 -1.813939
      ESP Fit Center  356 is at   3.090898 -1.856310 -1.813939
      ESP Fit Center  357 is at   3.320720 -1.485133 -1.813939
      ESP Fit Center  358 is at   3.053000 -1.056000 -2.080923
      ESP Fit Center  359 is at   2.940461 -0.636000 -2.080923
      ESP Fit Center  360 is at   1.793000 -1.783461 -2.080923
      ESP Fit Center  361 is at   2.213000 -1.896000 -2.080923
      ESP Fit Center  362 is at   2.633000 -1.783461 -2.080923
      ESP Fit Center  363 is at   2.940461 -1.476000 -2.080923
      ESP Fit Center  364 is at   2.647816 -1.056000 -2.248755
      ESP Fit Center  365 is at   1.995592 -1.432562 -2.248755
      ESP Fit Center  366 is at   2.430408 -1.432562 -2.248755
      ESP Fit Center  367 is at   0.360000  2.495000  2.254000
      ESP Fit Center  368 is at   0.794816  2.495000  2.196755
      ESP Fit Center  369 is at   0.577408  2.871562  2.196755
      ESP Fit Center  370 is at   0.142592  2.871562  2.196755
      ESP Fit Center  371 is at  -0.074816  2.495000  2.196755
      ESP Fit Center  372 is at   0.142592  2.118438  2.196755
      ESP Fit Center  373 is at   0.577408  2.118438  2.196755
      ESP Fit Center  374 is at   1.200000  2.495000  2.028923
      ESP Fit Center  375 is at   1.087461  2.915000  2.028923
      ESP Fit Center  376 is at   0.780000  3.222461  2.028923
      ESP Fit Center  377 is at   0.360000  3.335000  2.028923
      ESP Fit Center  378 is at  -0.060000  3.222461  2.028923
      ESP Fit Center  379 is at  -0.367461  2.915000  2.028923
      ESP Fit Center  380 is at  -0.480000  2.495000  2.028923
      ESP Fit Center  381 is at  -0.367461  2.075000  2.028923
      ESP Fit Center  382 is at   1.237898  3.295310  1.761939
      ESP Fit Center  383 is at   0.889510  3.558400  1.761939
      ESP Fit Center  384 is at   0.469609  3.677872  1.761939
      ESP Fit Center  385 is at   0.034905  3.637591  1.761939
      ESP Fit Center  386 is at  -0.355893  3.442996  1.761939
      ESP Fit Center  387 is at  -0.650006  3.120370  1.761939
      ESP Fit Center  388 is at  -0.807712  2.713283  1.761939
      ESP Fit Center  389 is at  -0.807712  2.276717  1.761939
      ESP Fit Center  390 is at   1.267129  3.632504  1.414000
      ESP Fit Center  391 is at   0.891543  3.849349  1.414000
      ESP Fit Center  392 is at   0.468727  3.945854  1.414000
      ESP Fit Center  393 is at   0.036249  3.913445  1.414000
      ESP Fit Center  394 is at  -0.367461  3.755000  1.414000
      ESP Fit Center  395 is at  -0.706534  3.484599  1.414000
      ESP Fit Center  396 is at  -0.950840  3.126267  1.414000
      ESP Fit Center  397 is at  -1.078672  2.711845  1.414000
      ESP Fit Center  398 is at  -1.078672  2.278155  1.414000
      ESP Fit Center  399 is at   1.507461  3.642461  1.008816
      ESP Fit Center  400 is at   1.171378  3.900347  1.008816
      ESP Fit Center  401 is at   0.780000  4.062461  1.008816
      ESP Fit Center  402 is at   0.360000  4.117755  1.008816
      ESP Fit Center  403 is at  -0.060000  4.062461  1.008816
[...]
 5766 Fit      -0.108000
 5767 Fit      -0.113796
 5768 Fit      -0.112729
 5769 Fit      -0.105957
 5770 Fit      -0.111175
 5771 Fit      -0.104021
 5772 Fit      -0.109097
 5773 Fit      -0.115689
 5774 Fit      -0.099156
 5775 Fit      -0.102780
 5776 Fit      -0.107626
 5777 Fit      -0.113911
 5778 Fit      -0.097303
 5779 Fit      -0.100423
 5780 Fit      -0.104721
 5781 Fit      -0.110437
 5782 Fit      -0.117828
 5783 Fit      -0.127122
 5784 Fit      -0.096393
 5785 Fit      -0.098967
 5786 Fit      -0.102663
 5787 Fit      -0.107699
 5788 Fit      -0.114363
 5789 Fit      -0.123020
 5790 Fit      -0.095920
 5791 Fit      -0.097746
 5792 Fit      -0.100636
 5793 Fit      -0.104765
 5794 Fit      -0.110401
 5795 Fit      -0.117937
 5796 Fit      -0.096296
 5797 Fit      -0.096844
 5798 Fit      -0.098449
 5799 Fit      -0.101205
 5800 Fit      -0.105305
 5801 Fit      -0.111066
 5802 Fit      -0.118992
 5803 Fit      -0.098198
 5804 Fit      -0.099253
 5805 Fit      -0.101523
 5806 Fit      -0.105200
 5807 Fit      -0.110614
 5808 Fit      -0.100508
 5809 Fit      -0.100956
 5810 Fit      -0.102627
 5811 Fit      -0.105710
 5812 Fit      -0.110512
 5813 Fit      -0.103914
 5814 Fit      -0.105494
 5815 Fit      -0.108753
 5816 Fit      -0.109105
 5817 Fit      -0.112367
 5818 Fit      -0.119226
 5819 Fit      -0.117268
 5820 Fit      -0.126284
 5821 Fit      -0.122546
 5822 Fit      -0.116864
 5823 Fit      -0.129524
 5824 Fit      -0.123386
 5825 Fit      -0.117037
 5826 Fit      -0.137532
 5827 Fit      -0.130145
 5828 Fit      -0.122771
 5829 Fit      -0.116204
 5830 Fit      -0.146226
 5831 Fit      -0.136812
 5832 Fit      -0.127971
 5833 Fit      -0.120375
 5834 Fit      -0.114233
 5835 Fit      -0.156713
 5836 Fit      -0.144816
 5837 Fit      -0.134273
 5838 Fit      -0.125497
 5839 Fit      -0.118514
 5840 Fit      -0.162395
 5841 Fit      -0.147750
 5842 Fit      -0.135841
 5843 Fit      -0.126478
 5844 Fit      -0.119337
 5845 Fit      -0.149498
 5846 Fit      -0.136965
 5847 Fit      -0.127454
 5848 Fit      -0.162321
 5849 Fit      -0.146453
 5850 Fit      -0.109859
 5851 Fit      -0.118840
 5852 Fit      -0.081012
 5853 Fit      -0.080102
 5854 Fit      -0.081763
 5855 Fit      -0.080841
 5856 Fit      -0.080127
 5857 Fit      -0.079655
 5858 Fit      -0.079449
 5859 Fit      -0.093157
 5860 Fit      -0.082944
 5861 Fit      -0.081914
 5862 Fit      -0.081101
 5863 Fit      -0.083889
 5864 Fit      -0.082803
 5865 Fit      -0.086470
 5866 Fit      -0.085039
 5867 Fit      -0.088967
 5868 Fit      -0.094906
 5869 Fit      -0.092040
 5870 Fit      -0.100829
 5871 Fit      -0.096535
 5872 Fit      -0.099834
 5873 Fit      -0.101022
 5874 Fit      -0.095649
 5875 Fit      -0.091498
 5876 Fit      -0.108752
 5877 Fit      -0.101666
 5878 Fit      -0.095793
 5879 Fit      -0.091200
 5880 Fit      -0.087841
 5881 Fit      -0.085641
 5882 Fit      -0.118576
 5883 Fit      -0.109754
 5884 Fit      -0.102267
 5885 Fit      -0.096158
 5886 Fit      -0.091334
 5887 Fit      -0.087672
 5888 Fit      -0.085054
 5889 Fit      -0.083375
 5890 Fit      -0.082548
 5891 Fit      -0.126706
 5892 Fit      -0.115954
 5893 Fit      -0.106979
 5894 Fit      -0.099692
 5895 Fit      -0.093894
 5896 Fit      -0.089388
 5897 Fit      -0.086003
 5898 Fit      -0.083599
 5899 Fit      -0.082063
 5900 Fit      -0.081299
 5901 Fit      -0.081220
 5902 Fit      -0.122516
 5903 Fit      -0.112234
 5904 Fit      -0.103908
 5905 Fit      -0.097247
 5906 Fit      -0.091989
 5907 Fit      -0.087921
 5908 Fit      -0.084875
 5909 Fit      -0.082720
 5910 Fit      -0.081350
 5911 Fit      -0.080678
 5912 Fit      -0.080628
 5913 Fit      -0.081129
 5914 Fit      -0.115547
 5915 Fit      -0.106661
 5916 Fit      -0.099529
 5917 Fit      -0.093861
 5918 Fit      -0.089426
 5919 Fit      -0.086041
 5920 Fit      -0.083567
 5921 Fit      -0.081890
 5922 Fit      -0.080923
 5923 Fit      -0.080591
 5924 Fit      -0.080836
 5925 Fit      -0.105737
 5926 Fit      -0.098787
 5927 Fit      -0.093290
 5928 Fit      -0.089026
 5929 Fit      -0.085822
 5930 Fit      -0.083538
 5931 Fit      -0.082066
 5932 Fit      -0.081318
 5933 Fit      -0.081226
 5934 Fit      -0.081737
 5935 Fit      -0.103057
 5936 Fit      -0.096719
 5937 Fit      -0.091767
 5938 Fit      -0.088018
 5939 Fit      -0.085318
 5940 Fit      -0.083541
 5941 Fit      -0.082586
 5942 Fit      -0.082376
 5943 Fit      -0.082851
 5944 Fit      -0.100805
 5945 Fit      -0.095221
 5946 Fit      -0.090932
 5947 Fit      -0.087797
 5948 Fit      -0.085687
 5949 Fit      -0.084492
 5950 Fit      -0.084127
 5951 Fit      -0.084522
 5952 Fit      -0.102026
 5953 Fit      -0.096320
 5954 Fit      -0.092043
 5955 Fit      -0.089073
 5956 Fit      -0.087279
 5957 Fit      -0.086543
 5958 Fit      -0.086769
 5959 Fit      -0.097793
 5960 Fit      -0.093666
 5961 Fit      -0.091029
 5962 Fit      -0.089750
 5963 Fit      -0.098267
 5964 Fit      -0.094963
 5965 Fit      -0.093512
 5966 Fit      -0.102246
 5967 Fit      -0.079279
 5968 Fit      -0.078284
 5969 Fit      -0.077781
 5970 Fit      -0.077739
 5971 Fit      -0.078137
 5972 Fit      -0.078975
 5973 Fit      -0.080278
 5974 Fit      -0.082095
 5975 Fit      -0.084507
 5976 Fit      -0.087628
 5977 Fit      -0.091603
 5978 Fit      -0.081377
 5979 Fit      -0.079516
 5980 Fit      -0.078191
 5981 Fit      -0.077384
 5982 Fit      -0.077078
 5983 Fit      -0.077261
 5984 Fit      -0.077936
 5985 Fit      -0.079125
 5986 Fit      -0.080872
 5987 Fit      -0.083244
 5988 Fit      -0.086338
 5989 Fit      -0.090282
 5990 Fit      -0.095233
 5991 Fit      -0.081541
 5992 Fit      -0.079575
 5993 Fit      -0.078182
 5994 Fit      -0.077351
 5995 Fit      -0.077072
 5996 Fit      -0.077345
 5997 Fit      -0.078184
 5998 Fit      -0.079622
 5999 Fit      -0.081712
 6000 Fit      -0.084535
 6001 Fit      -0.088196
 6002 Fit      -0.092833
 6003 Fit      -0.098607
 6004 Fit      -0.084870
 6005 Fit      -0.082201
 6006 Fit      -0.080160
 6007 Fit      -0.078734
 6008 Fit      -0.077915
 6009 Fit      -0.077701
 6010 Fit      -0.078099
 6011 Fit      -0.079133
 6012 Fit      -0.080842
 6013 Fit      -0.083288
 6014 Fit      -0.086555
 6015 Fit      -0.090752
 6016 Fit      -0.096002
 6017 Fit      -0.102433
 6018 Fit      -0.090601
 6019 Fit      -0.086727
 6020 Fit      -0.083665
 6021 Fit      -0.081380
 6022 Fit      -0.079851
 6023 Fit      -0.079073
 6024 Fit      -0.079050
 6025 Fit      -0.079801
 6026 Fit      -0.081366
 6027 Fit      -0.083804
 6028 Fit      -0.087201
 6029 Fit      -0.091656
 6030 Fit      -0.097274
 6031 Fit      -0.093896
 6032 Fit      -0.089338
 6033 Fit      -0.085805
 6034 Fit      -0.083244
 6035 Fit      -0.081628
 6036 Fit      -0.080955
 6037 Fit      -0.081239
 6038 Fit      -0.082513
 6039 Fit      -0.084831
 6040 Fit      -0.088266
 6041 Fit      -0.092894
 6042 Fit      -0.096107
 6043 Fit      -0.091008
 6044 Fit      -0.087258
 6045 Fit      -0.084835
 6046 Fit      -0.083739
 6047 Fit      -0.083993
 6048 Fit      -0.085637
 6049 Fit      -0.088723
 6050 Fit      -0.093276
 6051 Fit      -0.096638
 6052 Fit      -0.091338
 6053 Fit      -0.088164
 6054 Fit      -0.087301
 6055 Fit      -0.088834
 6056 Fit      -0.092733
 6057 Fit      -0.092413
 6058 Fit      -0.092825
 6059 Fit      -0.077123
 6060 Fit      -0.075167
 6061 Fit      -0.075158
 6062 Fit      -0.076042
 6063 Fit      -0.077741
 6064 Fit      -0.079960
 6065 Fit      -0.074700
 6066 Fit      -0.073969
 6067 Fit      -0.073776
 6068 Fit      -0.074150
 6069 Fit      -0.075080
 6070 Fit      -0.076555
 6071 Fit      -0.078551
 6072 Fit      -0.080937
 6073 Fit      -0.083387
 6074 Fit      -0.075453
 6075 Fit      -0.074166
 6076 Fit      -0.073231
 6077 Fit      -0.072733
 6078 Fit      -0.072697
 6079 Fit      -0.073098
 6080 Fit      -0.073902
 6081 Fit      -0.075111
 6082 Fit      -0.076762
 6083 Fit      -0.078894
 6084 Fit      -0.081476
 6085 Fit      -0.084322
 6086 Fit      -0.087083
 6087 Fit      -0.075760
 6088 Fit      -0.074322
 6089 Fit      -0.073131
 6090 Fit      -0.071692
 6091 Fit      -0.071943
 6092 Fit      -0.072482
 6093 Fit      -0.073278
 6094 Fit      -0.074339
 6095 Fit      -0.075716
 6096 Fit      -0.085498
 6097 Fit      -0.088679
 6098 Fit      -0.091657
 6099 Fit      -0.076680
 6100 Fit      -0.074991
 6101 Fit      -0.071571
 6102 Fit      -0.072259
 6103 Fit      -0.073118
 6104 Fit      -0.074177
 6105 Fit      -0.093055
 6106 Fit      -0.096599
 6107 Fit      -0.079959
 6108 Fit      -0.077883
 6109 Fit      -0.075981
 6110 Fit      -0.071509
 6111 Fit      -0.072266
 6112 Fit      -0.073124
 6113 Fit      -0.098195
 6114 Fit      -0.102380
 6115 Fit      -0.105973
 6116 Fit      -0.080851
 6117 Fit      -0.078586
 6118 Fit      -0.071429
 6119 Fit      -0.072199
 6120 Fit      -0.103770
 6121 Fit      -0.108812
 6122 Fit      -0.113261
 6123 Fit      -0.087635
 6124 Fit      -0.084546
 6125 Fit      -0.081842
 6126 Fit      -0.079437
 6127 Fit      -0.071577
 6128 Fit      -0.072348
 6129 Fit      -0.110113
 6130 Fit      -0.091729
 6131 Fit      -0.088030
 6132 Fit      -0.084853
 6133 Fit      -0.082091
 6134 Fit      -0.079637
 6135 Fit      -0.072454
 6136 Fit      -0.083339
 6137 Fit      -0.080712
 6138 Fit      -0.073017
 6139 Fit      -0.082059
 6140 Fit      -0.073824
 6141 Fit      -0.074691
 6142 Fit      -0.074044
 6143 Fit      -0.074888
 6144 Fit      -0.075811
 6145 Fit      -0.075598
 6146 Fit      -0.076511
 6147 Fit      -0.077588
 6148 Fit      -0.076438
 6149 Fit      -0.077164
 6150 Fit      -0.078125
 6151 Fit      -0.079349
 6152 Fit      -0.080893
 6153 Fit      -0.078179
 6154 Fit      -0.078458
 6155 Fit      -0.079091
 6156 Fit      -0.080078
 6157 Fit      -0.081448
 6158 Fit      -0.083265
 6159 Fit      -0.085628
 6160 Fit      -0.078320
 6161 Fit      -0.080627
 6162 Fit      -0.079585
 6163 Fit      -0.077577
 6164 Fit      -0.076739
 6165 Fit      -0.077645
 6166 Fit      -0.079513
 6167 Fit      -0.083744
 6168 Fit      -0.083228
 6169 Fit      -0.081490
 6170 Fit      -0.079242
 6171 Fit      -0.077283
 6172 Fit      -0.076098
 6173 Fit      -0.075812
 6174 Fit      -0.076334
 6175 Fit      -0.077513
 6176 Fit      -0.079198
 6177 Fit      -0.081151
 6178 Fit      -0.082892
 6179 Fit      -0.087768
 6180 Fit      -0.087540
 6181 Fit      -0.086214
 6182 Fit      -0.084087
 6183 Fit      -0.081631
 6184 Fit      -0.079306
 6185 Fit      -0.077436
 6186 Fit      -0.076174
 6187 Fit      -0.075541
 6188 Fit      -0.075478
 6189 Fit      -0.081188
 6190 Fit      -0.083222
 6191 Fit      -0.085252
 6192 Fit      -0.086908
 6193 Fit      -0.092808
 6194 Fit      -0.092791
 6195 Fit      -0.091666
 6196 Fit      -0.089610
 6197 Fit      -0.086966
 6198 Fit      -0.084139
 6199 Fit      -0.081481
 6200 Fit      -0.079234
 6201 Fit      -0.077522
 6202 Fit      -0.076373
 6203 Fit      -0.075752
 6204 Fit      -0.087670
 6205 Fit      -0.089938
 6206 Fit      -0.091770
 6207 Fit      -0.098969
 6208 Fit      -0.099174
 6209 Fit      -0.098163
 6210 Fit      -0.096065
 6211 Fit      -0.093180
 6212 Fit      -0.089899
 6213 Fit      -0.086604
 6214 Fit      -0.083592
 6215 Fit      -0.081048
 6216 Fit      -0.079058
 6217 Fit      -0.077630
 6218 Fit      -0.076725
 6219 Fit      -0.092744
 6220 Fit      -0.095434
 6221 Fit      -0.097631
 6222 Fit      -0.106325
 6223 Fit      -0.106800
 6224 Fit      -0.105951
 6225 Fit      -0.103873
 6226 Fit      -0.100819
 6227 Fit      -0.097154
 6228 Fit      -0.093283
 6229 Fit      -0.089552
 6230 Fit      -0.086206
 6231 Fit      -0.083381
 6232 Fit      -0.081130
 6233 Fit      -0.079447
 6234 Fit      -0.078285
 6235 Fit      -0.102005
 6236 Fit      -0.104631
 6237 Fit      -0.114828
 6238 Fit      -0.115605
 6239 Fit      -0.114797
 6240 Fit      -0.112501
 6241 Fit      -0.108964
 6242 Fit      -0.104594
 6243 Fit      -0.099887
 6244 Fit      -0.095290
 6245 Fit      -0.091116
 6246 Fit      -0.087538
 6247 Fit      -0.084622
 6248 Fit      -0.082366
 6249 Fit      -0.109235
 6250 Fit      -0.112586
 6251 Fit      -0.113270
 6252 Fit      -0.107718
 6253 Fit      -0.102196
 6254 Fit      -0.097121
 6255 Fit      -0.092713
 6256 Fit      -0.089058
 6257 Fit      -0.086154
 6258 Fit      -0.108893
 6259 Fit      -0.102878
 6260 Fit      -0.097660
 6261 Fit      -0.093328
 6262 Fit      -0.071675
 6263 Fit      -0.072222
 6264 Fit      -0.070368
 6265 Fit      -0.069443
 6266 Fit      -0.069500
 6267 Fit      -0.070526
 6268 Fit      -0.073565
 6269 Fit      -0.071020
 6270 Fit      -0.069134
 6271 Fit      -0.067967
 6272 Fit      -0.067546
 6273 Fit      -0.067871
 6274 Fit      -0.068927
 6275 Fit      -0.070680
 6276 Fit      -0.074479
 6277 Fit      -0.071633
 6278 Fit      -0.069350
 6279 Fit      -0.067674
 6280 Fit      -0.066625
 6281 Fit      -0.066209
 6282 Fit      -0.066424
 6283 Fit      -0.067258
 6284 Fit      -0.068692
 6285 Fit      -0.070697
 6286 Fit      -0.075751
 6287 Fit      -0.072720
 6288 Fit      -0.070182
 6289 Fit      -0.068167
 6290 Fit      -0.066686
 6291 Fit      -0.065745
 6292 Fit      -0.065341
 6293 Fit      -0.065470
 6294 Fit      -0.066124
 6295 Fit      -0.067291
 6296 Fit      -0.068955
 6297 Fit      -0.071090
 6298 Fit      -0.075182
 6299 Fit      -0.072186
 6300 Fit      -0.069700
 6301 Fit      -0.067731
 6302 Fit      -0.066284
 6303 Fit      -0.065355
 6304 Fit      -0.064941
 6305 Fit      -0.065035
 6306 Fit      -0.065630
 6307 Fit      -0.066717
 6308 Fit      -0.068283
 6309 Fit      -0.070309
 6310 Fit      -0.078280
 6311 Fit      -0.074906
 6312 Fit      -0.072021
 6313 Fit      -0.069634
 6314 Fit      -0.067744
 6315 Fit      -0.066349
 6316 Fit      -0.065445
 6317 Fit      -0.065024
 6318 Fit      -0.065080
 6319 Fit      -0.065606
 6320 Fit      -0.066596
 6321 Fit      -0.068039
 6322 Fit      -0.069923
 6323 Fit      -0.077098
 6324 Fit      -0.073977
 6325 Fit      -0.071352
 6326 Fit      -0.069223
 6327 Fit      -0.067586
 6328 Fit      -0.066434
 6329 Fit      -0.065760
 6330 Fit      -0.065556
 6331 Fit      -0.065816
 6332 Fit      -0.066533
 6333 Fit      -0.067700
 6334 Fit      -0.069308
 6335 Fit      -0.071344
 6336 Fit      -0.081073
 6337 Fit      -0.077419
 6338 Fit      -0.074296
 6339 Fit      -0.071713
 6340 Fit      -0.069669
 6341 Fit      -0.068156
 6342 Fit      -0.067164
 6343 Fit      -0.066684
 6344 Fit      -0.066706
 6345 Fit      -0.067223
 6346 Fit      -0.068227
 6347 Fit      -0.069711
 6348 Fit      -0.071663
 6349 Fit      -0.080467
 6350 Fit      -0.076925
 6351 Fit      -0.073994
 6352 Fit      -0.071677
 6353 Fit      -0.069965
 6354 Fit      -0.068845
 6355 Fit      -0.068302
 6356 Fit      -0.068325
 6357 Fit      -0.068903
 6358 Fit      -0.070027
 6359 Fit      -0.071687
 6360 Fit      -0.073873
 6361 Fit      -0.080236
 6362 Fit      -0.076919
 6363 Fit      -0.074301
 6364 Fit      -0.072371
 6365 Fit      -0.071109
 6366 Fit      -0.070493
 6367 Fit      -0.070507
 6368 Fit      -0.071138
 6369 Fit      -0.072371
 6370 Fit      -0.074197
 6371 Fit      -0.078089
 6372 Fit      -0.075634
 6373 Fit      -0.074049
 6374 Fit      -0.073294
 6375 Fit      -0.073339
 6376 Fit      -0.074160
 6377 Fit      -0.075735
 6378 Fit      -0.077731
 6379 Fit      -0.076785
 6380 Fit      -0.076872
 6381 Fit      -0.077947
 6382 Fit      -0.078198
 6383 Fit      -0.080712
 6384 Fit      -0.075240
 6385 Fit      -0.075934
 6386 Fit      -0.077677
 6387 Fit      -0.080395
 6388 Fit      -0.083849
 6389 Fit      -0.087576
 6390 Fit      -0.073777
 6391 Fit      -0.074040
 6392 Fit      -0.075134
 6393 Fit      -0.077084
 6394 Fit      -0.079868
 6395 Fit      -0.083386
 6396 Fit      -0.087416
 6397 Fit      -0.091568
 6398 Fit      -0.072992
 6399 Fit      -0.072758
 6400 Fit      -0.073210
 6401 Fit      -0.074398
 6402 Fit      -0.076358
 6403 Fit      -0.079104
 6404 Fit      -0.082612
 6405 Fit      -0.086787
 6406 Fit      -0.091427
 6407 Fit      -0.096173
 6408 Fit      -0.072828
 6409 Fit      -0.072263
 6410 Fit      -0.072253
 6411 Fit      -0.072849
 6412 Fit      -0.074096
 6413 Fit      -0.076036
 6414 Fit      -0.078699
 6415 Fit      -0.082100
 6416 Fit      -0.086219
 6417 Fit      -0.090976
 6418 Fit      -0.096188
 6419 Fit      -0.101528
 6420 Fit      -0.072265
 6421 Fit      -0.072077
 6422 Fit      -0.072461
 6423 Fit      -0.073467
 6424 Fit      -0.075142
 6425 Fit      -0.077534
 6426 Fit      -0.080685
 6427 Fit      -0.084626
 6428 Fit      -0.089356
 6429 Fit      -0.094819
 6430 Fit      -0.100855
 6431 Fit      -0.107142
 6432 Fit      -0.072745
 6433 Fit      -0.072416
 6434 Fit      -0.072617
 6435 Fit      -0.073396
 6436 Fit      -0.074801
 6437 Fit      -0.076885
 6438 Fit      -0.079700
 6439 Fit      -0.083300
 6440 Fit      -0.087727
 6441 Fit      -0.093002
 6442 Fit      -0.099089
 6443 Fit      -0.105862
 6444 Fit      -0.073359
 6445 Fit      -0.073236
 6446 Fit      -0.073657
 6447 Fit      -0.074668
 6448 Fit      -0.076322
 6449 Fit      -0.078676
 6450 Fit      -0.081791
 6451 Fit      -0.085731
 6452 Fit      -0.090554
 6453 Fit      -0.096292
 6454 Fit      -0.074776
 6455 Fit      -0.074502
 6456 Fit      -0.074803
 6457 Fit      -0.075731
 6458 Fit      -0.077345
 6459 Fit      -0.079712
 6460 Fit      -0.082904
 6461 Fit      -0.087001
 6462 Fit      -0.092075
 6463 Fit      -0.076384
 6464 Fit      -0.076341
 6465 Fit      -0.076970
 6466 Fit      -0.078336
 6467 Fit      -0.080512
 6468 Fit      -0.083584
 6469 Fit      -0.087643
 6470 Fit      -0.092772
 6471 Fit      -0.078588
 6472 Fit      -0.078855
 6473 Fit      -0.079895
 6474 Fit      -0.081785
 6475 Fit      -0.084615
 6476 Fit      -0.088480
 6477 Fit      -0.093464
 6478 Fit      -0.081605
 6479 Fit      -0.082637
 6480 Fit      -0.084712
 6481 Fit      -0.087941
 6482 Fit      -0.092433
 6483 Fit      -0.085925
 6484 Fit      -0.088144
 6485 Fit      -0.091763
 -----------------------------------------------------------------
 Leave Link  602 at Thu Jun 28 09:45:42 2018, MaxMem=   33554432 cpu:       1.0

 Test job not archived.
 1\1\GINC-N0642\FOpt\RHF\6-31G(d)\C8H15N2(1-)\MANEKO\28-Jun-2018\0\\#HF
 /6-31G* SCF=tight Test Pop=MK iop(6/33=2) NoSymm iop(6/42=6) opt\\rema
 rk line goes here\\-1,1\C,0.2805331103,0.0972908563,-1.5939371731\C,1.
 3078300377,-0.0191505098,-0.7698073692\C,0.445541376,2.1380464953,-0.4
 482554903\N,-0.3756320553,1.3300514995,-1.4438709861\H,-0.0322781842,-
 0.6172533825,-2.3409465454\H,1.9989223357,-0.8463832731,-0.712157446\H
 ,1.0692198342,2.7539891546,-1.1142172625\N,1.442835023,1.1131350228,0.
 064251472\C,1.3302559259,0.7912012484,1.4655539708\H,0.3744078758,0.33
 49890308,1.7463336618\H,2.1210402579,0.0955138713,1.7640124702\H,1.444
 1335857,1.698243496,2.0486029692\C,-1.7999984673,1.2569623947,-1.21725
 497\H,-2.1983314031,2.2645961462,-1.3109783607\H,-2.2546004189,0.66868
 75071,-2.0217751715\C,-2.2584147305,0.6892652648,0.1311432852\H,-1.895
 6387216,-0.3316618758,0.2404730916\H,-1.7806636343,1.2801777183,0.9041
 476361\C,-3.7783946597,0.7089414418,0.3056732741\H,-4.1429160175,1.729
 2064596,0.1925247622\H,-4.2506425439,0.1305607797,-0.4890491189\C,-4.2
 379552929,0.1632098596,1.6590013275\H,-3.8108997326,0.7407330898,2.474
 3606343\H,-5.3213843845,0.1933702178,1.761268117\H,-3.921969116,-0.868
 7225135,1.7909032217\\Version=EM64L-G09RevA.02\HF=-420.4123186\RMSD=3.
 111e-09\RMSF=2.161e-05\Dipole=-2.1559881,-1.7674172,0.6176654\Quadrupo
 le=0.0482754,-4.3760737,4.3277983,-2.9612426,1.5572499,3.4301933\PG=C0
 1 [X(C8H15N2)]\\@


 There ain't no surer way to find out whether you
 like people or hate them than to travel with them.
                                     -- Mark Twain
 Job cpu time:  0 days  0 hours 13 minutes 13.2 seconds.
 File lengths (MBytes):  RWF=     26 Int=      0 D2E=      0 Chk=      6 Scr=      1
 Normal termination of Gaussian 09 at Thu Jun 28 09:45:42 2018.
