 Entering Gaussian System, Link 0=g09
 Input=TF2.com
 Output=TF2.log
 Initial command:
 /gscratch/pfaendtner/codes/G09/g09/l1.exe /gscratch/pfaendtner/wesley/gaussian/Gau-19412.inp -scrdir=/gscratch/pfaendtner/wesley/gaussian/
 Entering Link 1 = /gscratch/pfaendtner/codes/G09/g09/l1.exe PID=     19417.
  
 Copyright (c) 1988,1990,1992,1993,1995,1998,2003,2009, Gaussian, Inc.
                  All Rights Reserved.
  
 This is part of the Gaussian(R) 09 program.  It is based on
 the Gaussian(R) 03 system (copyright 2003, Gaussian, Inc.),
 the Gaussian(R) 98 system (copyright 1998, Gaussian, Inc.),
 the Gaussian(R) 94 system (copyright 1995, Gaussian, Inc.),
 the Gaussian 92(TM) system (copyright 1992, Gaussian, Inc.),
 the Gaussian 90(TM) system (copyright 1990, Gaussian, Inc.),
 the Gaussian 88(TM) system (copyright 1988, Gaussian, Inc.),
 the Gaussian 86(TM) system (copyright 1986, Carnegie Mellon
 University), and the Gaussian 82(TM) system (copyright 1983,
 Carnegie Mellon University). Gaussian is a federally registered
 trademark of Gaussian, Inc.
  
 This software contains proprietary and confidential information,
 including trade secrets, belonging to Gaussian, Inc.
  
 This software is provided under written license and may be
 used, copied, transmitted, or stored only in accord with that
 written license.
  
 The following legend is applicable only to US Government
 contracts under FAR:
  
                    RESTRICTED RIGHTS LEGEND
  
 Use, reproduction and disclosure by the US Government is
 subject to restrictions as set forth in subparagraphs (a)
 and (c) of the Commercial Computer Software - Restricted
 Rights clause in FAR 52.227-19.
  
 Gaussian, Inc.
 340 Quinnipiac St., Bldg. 40, Wallingford CT 06492
  
  
 ---------------------------------------------------------------
 Warning -- This program may not be used in any manner that
 competes with the business of Gaussian, Inc. or will provide
 assistance to any competitor of Gaussian, Inc.  The licensee
 of this program is prohibited from giving any competitor of
 Gaussian, Inc. access to this program.  By using this program,
 the user acknowledges that Gaussian, Inc. is engaged in the
 business of creating and licensing software in the field of
 computational chemistry and represents and warrants to the
 licensee that it is not a competitor of Gaussian, Inc. and that
 it will not use this program in any manner prohibited above.
 ---------------------------------------------------------------
  

 Cite this work as:
 Gaussian 09, Revision A.02,
 M. J. Frisch, G. W. Trucks, H. B. Schlegel, G. E. Scuseria, 
 M. A. Robb, J. R. Cheeseman, G. Scalmani, V. Barone, B. Mennucci, 
 G. A. Petersson, H. Nakatsuji, M. Caricato, X. Li, H. P. Hratchian, 
 A. F. Izmaylov, J. Bloino, G. Zheng, J. L. Sonnenberg, M. Hada, 
 M. Ehara, K. Toyota, R. Fukuda, J. Hasegawa, M. Ishida, T. Nakajima, 
 Y. Honda, O. Kitao, H. Nakai, T. Vreven, J. A. Montgomery, Jr., 
 J. E. Peralta, F. Ogliaro, M. Bearpark, J. J. Heyd, E. Brothers, 
 K. N. Kudin, V. N. Staroverov, R. Kobayashi, J. Normand, 
 K. Raghavachari, A. Rendell, J. C. Burant, S. S. Iyengar, J. Tomasi, 
 M. Cossi, N. Rega, J. M. Millam, M. Klene, J. E. Knox, J. B. Cross, 
 V. Bakken, C. Adamo, J. Jaramillo, R. Gomperts, R. E. Stratmann, 
 O. Yazyev, A. J. Austin, R. Cammi, C. Pomelli, J. W. Ochterski, 
 R. L. Martin, K. Morokuma, V. G. Zakrzewski, G. A. Voth, 
 P. Salvador, J. J. Dannenberg, S. Dapprich, A. D. Daniels, 
 O. Farkas, J. B. Foresman, J. V. Ortiz, J. Cioslowski, 
 and D. J. Fox, Gaussian, Inc., Wallingford CT, 2009.
 
 ******************************************
 Gaussian 09:  EM64L-G09RevA.02 11-Jun-2009
                12-Apr-2018 
 ******************************************
 %chk=molecule
 -------------------------------------------------------------------
 #HF/6-31G* SCF=tight Test Pop=MK iop(6/33=2) NoSymm iop(6/42=6) opt
 -------------------------------------------------------------------
 1/18=20,19=15,38=1/1,3;
 2/9=110,12=2,15=1,17=6,18=5,40=1/2;
 3/5=1,6=6,7=1,11=9,16=1,25=1,30=1,71=1/1,2,3;
 4//1;
 5/5=2,32=2,38=5/2;
 6/7=2,8=2,9=2,10=2,15=8,20=1,28=1,33=2,42=6/1,2;
 7/30=1/1,2,3,16;
 1/18=20,19=15/3(2);
 2/9=110,15=1/2;
 99//99;
 2/9=110,15=1/2;
 3/5=1,6=6,7=1,11=9,16=1,25=1,30=1,71=1/1,2,3;
 4/5=5,16=3/1;
 5/5=2,32=2,38=5/2;
 7/30=1/1,2,3,16;
 1/18=20,19=15/3(-5);
 2/9=110,15=1/2;
 6/7=2,8=2,9=2,10=2,15=8,19=2,20=1,28=1,33=2,42=6/1,2;
 99/9=1/99;
 ---------------------
 remark line goes here
 ---------------------
 Symbolic Z-matrix:
 Charge = -1 Multiplicity = 1
 N                    -0.328     0.532     1.567 
 S                    -1.288    -0.37      0.695 
 S                    -0.76      1.387     2.809 
 O                    -1.964    -1.41      1.412 
 O                    -2.031     0.35     -0.297 
 O                     0.082     2.537     2.935 
 O                    -2.175     1.543     2.965 
 C                     0.007    -1.23     -0.245 
 C                    -0.261     0.356     4.223 
 F                    -0.573    -2.07     -1.081 
 F                     0.738    -0.399    -0.95 
 F                     0.8      -1.922     0.54 
 F                     1.03      0.108     4.197 
 F                    -0.9      -0.788     4.238 
 F                    -0.53      0.992     5.346 
 

 GradGradGradGradGradGradGradGradGradGradGradGradGradGradGradGradGradGrad
 Berny optimization.
 Initialization pass.
                           ----------------------------
                           !    Initial Parameters    !
                           ! (Angstroms and Degrees)  !
 --------------------------                            --------------------------
 ! Name  Definition              Value          Derivative Info.                !
 --------------------------------------------------------------------------------
 ! R1    R(1,2)                  1.5797         estimate D2E/DX2                !
 ! R2    R(1,3)                  1.5685         estimate D2E/DX2                !
 ! R3    R(2,4)                  1.4327         estimate D2E/DX2                !
 ! R4    R(2,5)                  1.4334         estimate D2E/DX2                !
 ! R5    R(2,8)                  1.8167         estimate D2E/DX2                !
 ! R6    R(3,6)                  1.4309         estimate D2E/DX2                !
 ! R7    R(3,7)                  1.4321         estimate D2E/DX2                !
 ! R8    R(3,9)                  1.8197         estimate D2E/DX2                !
 ! R9    R(8,10)                 1.3194         estimate D2E/DX2                !
 ! R10   R(8,11)                 1.3122         estimate D2E/DX2                !
 ! R11   R(8,12)                 1.313          estimate D2E/DX2                !
 ! R12   R(9,13)                 1.3149         estimate D2E/DX2                !
 ! R13   R(9,14)                 1.3105         estimate D2E/DX2                !
 ! R14   R(9,15)                 1.3183         estimate D2E/DX2                !
 ! A1    A(2,1,3)              125.5178         estimate D2E/DX2                !
 ! A2    A(1,2,4)              115.148          estimate D2E/DX2                !
 ! A3    A(1,2,5)              114.2183         estimate D2E/DX2                !
 ! A4    A(1,2,8)               97.0494         estimate D2E/DX2                !
 ! A5    A(4,2,5)              117.8009         estimate D2E/DX2                !
 ! A6    A(4,2,8)              104.5756         estimate D2E/DX2                !
 ! A7    A(5,2,8)              104.4304         estimate D2E/DX2                !
 ! A8    A(1,3,6)              110.2284         estimate D2E/DX2                !
 ! A9    A(1,3,7)              114.6938         estimate D2E/DX2                !
 ! A10   A(1,3,9)              103.3516         estimate D2E/DX2                !
 ! A11   A(6,3,7)              118.9662         estimate D2E/DX2                !
 ! A12   A(6,3,9)              103.0364         estimate D2E/DX2                !
 ! A13   A(7,3,9)              104.3603         estimate D2E/DX2                !
 ! A14   A(2,8,10)             108.4138         estimate D2E/DX2                !
 ! A15   A(2,8,11)             112.0434         estimate D2E/DX2                !
 ! A16   A(2,8,12)             111.7574         estimate D2E/DX2                !
 ! A17   A(10,8,11)            107.9168         estimate D2E/DX2                !
 ! A18   A(10,8,12)            107.9854         estimate D2E/DX2                !
 ! A19   A(11,8,12)            108.5735         estimate D2E/DX2                !
 ! A20   A(3,9,13)             111.1457         estimate D2E/DX2                !
 ! A21   A(3,9,14)             111.7025         estimate D2E/DX2                !
 ! A22   A(3,9,15)             109.4286         estimate D2E/DX2                !
 ! A23   A(13,9,14)            108.321          estimate D2E/DX2                !
 ! A24   A(13,9,15)            107.9496         estimate D2E/DX2                !
 ! A25   A(14,9,15)            108.1741         estimate D2E/DX2                !
 ! D1    D(3,1,2,4)            -59.186          estimate D2E/DX2                !
 ! D2    D(3,1,2,5)             81.7211         estimate D2E/DX2                !
 ! D3    D(3,1,2,8)           -168.9521         estimate D2E/DX2                !
 ! D4    D(2,1,3,6)           -150.4275         estimate D2E/DX2                !
 ! D5    D(2,1,3,7)            -12.9075         estimate D2E/DX2                !
 ! D6    D(2,1,3,9)            100.0283         estimate D2E/DX2                !
 ! D7    D(1,2,8,10)          -179.7274         estimate D2E/DX2                !
 ! D8    D(1,2,8,11)           -60.7404         estimate D2E/DX2                !
 ! D9    D(1,2,8,12)            61.3733         estimate D2E/DX2                !
 ! D10   D(4,2,8,10)            61.94           estimate D2E/DX2                !
 ! D11   D(4,2,8,11)          -179.073          estimate D2E/DX2                !
 ! D12   D(4,2,8,12)           -56.9593         estimate D2E/DX2                !
 ! D13   D(5,2,8,10)           -62.429          estimate D2E/DX2                !
 ! D14   D(5,2,8,11)            56.558          estimate D2E/DX2                !
 ! D15   D(5,2,8,12)           178.6717         estimate D2E/DX2                !
 ! D16   D(1,3,9,13)            58.644          estimate D2E/DX2                !
 ! D17   D(1,3,9,14)           -62.4662         estimate D2E/DX2                !
 ! D18   D(1,3,9,15)           177.7749         estimate D2E/DX2                !
 ! D19   D(6,3,9,13)           -56.1731         estimate D2E/DX2                !
 ! D20   D(6,3,9,14)          -177.2833         estimate D2E/DX2                !
 ! D21   D(6,3,9,15)            62.9578         estimate D2E/DX2                !
 ! D22   D(7,3,9,13)           178.9081         estimate D2E/DX2                !
 ! D23   D(7,3,9,14)            57.7978         estimate D2E/DX2                !
 ! D24   D(7,3,9,15)           -61.9611         estimate D2E/DX2                !
 --------------------------------------------------------------------------------
 Trust Radius=3.00D-01 FncErr=1.00D-07 GrdErr=1.00D-07
 Number of steps in this run=  73 maximum allowed number of steps= 100.
 GradGradGradGradGradGradGradGradGradGradGradGradGradGradGradGradGradGrad

                          Input orientation:                          
 ---------------------------------------------------------------------
 Center     Atomic      Atomic             Coordinates (Angstroms)
 Number     Number       Type             X           Y           Z
 ---------------------------------------------------------------------
      1          7           0       -0.328000    0.532000    1.567000
      2         16           0       -1.288000   -0.370000    0.695000
      3         16           0       -0.760000    1.387000    2.809000
      4          8           0       -1.964000   -1.410000    1.412000
      5          8           0       -2.031000    0.350000   -0.297000
      6          8           0        0.082000    2.537000    2.935000
      7          8           0       -2.175000    1.543000    2.965000
      8          6           0        0.007000   -1.230000   -0.245000
      9          6           0       -0.261000    0.356000    4.223000
     10          9           0       -0.573000   -2.070000   -1.081000
     11          9           0        0.738000   -0.399000   -0.950000
     12          9           0        0.800000   -1.922000    0.540000
     13          9           0        1.030000    0.108000    4.197000
     14          9           0       -0.900000   -0.788000    4.238000
     15          9           0       -0.530000    0.992000    5.346000
 ---------------------------------------------------------------------
                    Distance matrix (angstroms):
                    1          2          3          4          5
     1  N    0.000000
     2  S    1.579743   0.000000
     3  S    1.568507   2.799076   0.000000
     4  O    2.543990   1.432712   3.350289   0.000000
     5  O    2.531369   1.433357   3.512555   2.454133   0.000000
     6  O    2.461615   3.917288   1.430853   4.699410   4.437743
     7  O    2.527436   3.098264   1.432095   3.343133   3.476295
     8  C    2.549552   1.816652   4.094373   2.581257   2.579253
     9  C    2.662668   3.745476   1.819714   3.731044   4.854208
    10  F    3.720529   2.560352   5.207487   2.930108   2.932033
    11  F    2.887630   2.609893   4.423108   3.728534   2.941899
    12  F    2.889503   2.606237   4.304816   2.943166   3.725200
    13  F    2.990124   4.226773   2.601247   4.361718   5.442823
    14  F    3.033781   3.588609   2.606198   3.083060   4.810450
    15  F    3.812249   4.905243   2.577847   4.827247   5.874403
                    6          7          8          9         10
     6  O    0.000000
     7  O    2.466371   0.000000
     8  C    4.930346   4.770194   0.000000
     9  C    2.556043   2.579715   4.748710   0.000000
    10  F    6.146684   5.655996   1.319430   5.840825   0.000000
    11  F    4.913620   5.252062   1.312230   5.322401   2.127939
    12  F    5.112165   5.170829   1.312988   4.458643   2.129477
    13  F    2.896789   3.721434   4.750593   1.314862   5.930479
    14  F    3.703749   2.946136   4.595139   1.310451   5.481078
    15  F    2.928223   2.945978   6.040276   1.318327   7.119271
                   11         12         13         14         15
    11  F    0.000000
    12  F    2.131542   0.000000
    13  F    5.180147   4.188968   0.000000
    14  F    5.454329   4.225063   2.128238   0.000000
    15  F    6.571326   5.775633   2.129614   2.129076   0.000000
 Symmetry turned off by external request.
 Stoichiometry    C2F6NO4S2(1-)
 Framework group  C1[X(C2F6NO4S2)]
 Deg. of freedom    39
 Full point group                 C1      NOp   1
 Rotational constants (GHZ):      0.9586673      0.3385542      0.3182672
 Standard basis: 6-31G(d) (6D, 7F)
 Integral buffers will be    131072 words long.
 Raffenetti 1 integral format.
 Two-electron integral symmetry is turned off.
   233 basis functions,   468 primitive gaussians,   233 cartesian basis functions
    69 alpha electrons       69 beta electrons
       nuclear repulsion energy      1603.7862681149 Hartrees.
 NAtoms=   15 NActive=   15 NUniq=   15 SFac= 7.50D-01 NAtFMM=   80 NAOKFM=F Big=F
 One-electron integrals computed using PRISM.
 NBasis=   233 RedAO= T  NBF=   233
 NBsUse=   233 1.00D-06 NBFU=   233
 Harris functional with IExCor=  205 diagonalized for initial guess.
 ExpMin= 1.17D-01 ExpMax= 2.19D+04 ExpMxC= 3.30D+03 IAcc=1 IRadAn=         1 AccDes= 0.00D+00
 HarFok:  IExCor=  205 AccDes= 0.00D+00 IRadAn=         1 IDoV= 1
 ScaDFX=  1.000000  1.000000  1.000000  1.000000
 FoFCou: FMM=F IPFlag=           0 FMFlag=      100000 FMFlg1=           0
         NFxFlg=           0 DoJE=T BraDBF=F KetDBF=T FulRan=T
         Omega=  0.000000  0.000000  1.000000  0.000000  0.000000 ICntrl=     500 IOpCl=  0
         NMat0=    1 NMatS0=    1 NMatT0=    0 NMatD0=    1 NMtDS0=    0 NMtDT0=    0
         I1Cent=           4 NGrid=           0.
 Symmetry not used in FoFCou.
 Requested convergence on RMS density matrix=1.00D-08 within 128 cycles.
 Requested convergence on MAX density matrix=1.00D-06.
 Requested convergence on             energy=1.00D-06.
 No special actions if energy rises.
 Integral accuracy reduced to 1.0D-05 until final iterations.
 Initial convergence to 1.0D-05 achieved.  Increase integral accuracy.
 SCF Done:  E(RHF) =  -1821.18693202     A.U. after   14 cycles
             Convg  =    0.3980D-08             -V/T =  2.0016

 **********************************************************************

            Population analysis using the SCF density.

 **********************************************************************

 Alpha  occ. eigenvalues --  -92.09095 -92.09027 -26.24227 -26.24189 -26.24110
 Alpha  occ. eigenvalues --  -26.23907 -26.23813 -26.23703 -20.43065 -20.42851
 Alpha  occ. eigenvalues --  -20.42823 -20.42757 -15.43576 -11.40505 -11.39989
 Alpha  occ. eigenvalues --   -9.06164  -9.06156  -6.74816  -6.74764  -6.74762
 Alpha  occ. eigenvalues --   -6.74743  -6.74721  -6.74709  -1.64272  -1.63931
 Alpha  occ. eigenvalues --   -1.53906  -1.53802  -1.53504  -1.53495  -1.36362
 Alpha  occ. eigenvalues --   -1.34366  -1.22712  -1.22342  -1.10259  -0.91628
 Alpha  occ. eigenvalues --   -0.88862  -0.81638  -0.76827  -0.73154  -0.72769
 Alpha  occ. eigenvalues --   -0.72453  -0.72341  -0.70825  -0.62418  -0.60897
 Alpha  occ. eigenvalues --   -0.60787  -0.60431  -0.60291  -0.57771  -0.56043
 Alpha  occ. eigenvalues --   -0.55740  -0.55608  -0.55418  -0.54807  -0.54412
 Alpha  occ. eigenvalues --   -0.54053  -0.53686  -0.52079  -0.51591  -0.45558
 Alpha  occ. eigenvalues --   -0.39795  -0.39267  -0.38390  -0.36158  -0.35793
 Alpha  occ. eigenvalues --   -0.35109  -0.33166  -0.30987  -0.28586
 Alpha virt. eigenvalues --    0.36271   0.37209   0.38829   0.41671   0.42294
 Alpha virt. eigenvalues --    0.43014   0.44446   0.50899   0.54028   0.54390
 Alpha virt. eigenvalues --    0.56524   0.58932   0.59605   0.60822   0.63591
 Alpha virt. eigenvalues --    0.66835   0.67902   0.69344   0.72935   0.76783
 Alpha virt. eigenvalues --    0.78952   0.80238   0.85650   0.86314   0.88097
 Alpha virt. eigenvalues --    0.89007   0.91521   0.95318   1.06740   1.08013
 Alpha virt. eigenvalues --    1.08616   1.10768   1.12093   1.14371   1.17086
 Alpha virt. eigenvalues --    1.17660   1.20726   1.23800   1.30101   1.30248
 Alpha virt. eigenvalues --    1.32768   1.35812   1.36184   1.39420   1.41490
 Alpha virt. eigenvalues --    1.42590   1.44109   1.44426   1.45269   1.46269
 Alpha virt. eigenvalues --    1.47754   1.48106   1.53165   1.54818   1.55594
 Alpha virt. eigenvalues --    1.57788   1.57929   1.60044   1.61587   1.62321
 Alpha virt. eigenvalues --    1.66397   1.67603   1.70406   1.71014   1.72594
 Alpha virt. eigenvalues --    1.73373   1.74030   1.74641   1.74850   1.75512
 Alpha virt. eigenvalues --    1.75910   1.76487   1.76833   1.77253   1.78200
 Alpha virt. eigenvalues --    1.80980   1.84334   1.86726   1.92454   1.96670
 Alpha virt. eigenvalues --    2.00469   2.03453   2.06165   2.07272   2.07844
 Alpha virt. eigenvalues --    2.09585   2.15919   2.16461   2.18073   2.18431
 Alpha virt. eigenvalues --    2.19582   2.21133   2.21811   2.22410   2.22617
 Alpha virt. eigenvalues --    2.23691   2.23944   2.25599   2.26230   2.26881
 Alpha virt. eigenvalues --    2.28694   2.28929   2.30103   2.32159   2.32829
 Alpha virt. eigenvalues --    2.38538   2.39015   2.41264   2.41679   2.44245
 Alpha virt. eigenvalues --    2.44876   2.46083   2.46754   2.52124   2.52473
 Alpha virt. eigenvalues --    2.52649   2.55472   2.58519   2.60957   2.61643
 Alpha virt. eigenvalues --    2.64664   2.66985   2.70804   2.71278   2.73775
 Alpha virt. eigenvalues --    2.75755   2.76160   2.80449   2.81640   2.85304
 Alpha virt. eigenvalues --    2.87681   3.00993   3.06201   3.13723   3.14995
 Alpha virt. eigenvalues --    3.23372   3.24279   3.25196   3.25815   3.30246
 Alpha virt. eigenvalues --    3.31101   3.36081   3.36679   3.54350   3.54451
 Alpha virt. eigenvalues --    3.54863   3.55357   3.55617   3.56357   4.34666
 Alpha virt. eigenvalues --    4.40948   4.45146   4.47770   4.51302   4.59224
 Alpha virt. eigenvalues --    4.73222   4.88820   4.90302   5.20620   5.25957
 Alpha virt. eigenvalues --    5.27502   5.38581   5.76890   5.79866
          Condensed to atoms (all electrons):
              1          2          3          4          5          6
     1  N    7.642506   0.326209   0.342699  -0.059470  -0.061012  -0.065040
     2  S    0.326209  12.831930  -0.000721   0.517182   0.544604  -0.002182
     3  S    0.342699  -0.000721  12.852012   0.001487  -0.003110   0.550694
     4  O   -0.059470   0.517182   0.001487   8.321474  -0.049122  -0.000012
     5  O   -0.061012   0.544604  -0.003110  -0.049122   8.292345   0.000004
     6  O   -0.065040  -0.002182   0.550694  -0.000012   0.000004   8.286456
     7  O   -0.062240   0.011140   0.496528  -0.000609  -0.000133  -0.045559
     8  C   -0.064584   0.223516  -0.002882  -0.048845  -0.053072  -0.000025
     9  C   -0.054487  -0.004666   0.234220   0.000294   0.000013  -0.056925
    10  F    0.000712   0.004616   0.000048   0.000825   0.000730   0.000000
    11  F    0.002068   0.002040   0.000190   0.000412   0.000693   0.000000
    12  F    0.001601   0.004282   0.000050   0.000446   0.000425   0.000000
    13  F    0.001398   0.000343   0.002203  -0.000003   0.000000   0.000840
    14  F    0.000982   0.002825   0.002342  -0.000182   0.000000   0.000481
    15  F    0.000815   0.000145  -0.001981  -0.000001   0.000000   0.000803
              7          8          9         10         11         12
     1  N   -0.062240  -0.064584  -0.054487   0.000712   0.002068   0.001601
     2  S    0.011140   0.223516  -0.004666   0.004616   0.002040   0.004282
     3  S    0.496528  -0.002882   0.234220   0.000048   0.000190   0.000050
     4  O   -0.000609  -0.048845   0.000294   0.000825   0.000412   0.000446
     5  O   -0.000133  -0.053072   0.000013   0.000730   0.000693   0.000425
     6  O   -0.045559  -0.000025  -0.056925   0.000000   0.000000   0.000000
     7  O    8.333934  -0.000029  -0.047481   0.000000   0.000000   0.000000
     8  C   -0.000029   4.466334   0.000024   0.220958   0.212215   0.209843
     9  C   -0.047481   0.000024   4.448434   0.000000  -0.000001   0.000006
    10  F    0.000000   0.220958   0.000000   9.192246  -0.032229  -0.031942
    11  F    0.000000   0.212215  -0.000001  -0.032229   9.184448  -0.030963
    12  F    0.000000   0.209843   0.000006  -0.031942  -0.030963   9.188035
    13  F    0.000436  -0.000004   0.210212   0.000000   0.000000   0.000000
    14  F    0.000616  -0.000052   0.216153   0.000000   0.000000   0.000000
    15  F    0.001047   0.000000   0.224135   0.000000   0.000000   0.000000
             13         14         15
     1  N    0.001398   0.000982   0.000815
     2  S    0.000343   0.002825   0.000145
     3  S    0.002203   0.002342  -0.001981
     4  O   -0.000003  -0.000182  -0.000001
     5  O    0.000000   0.000000   0.000000
     6  O    0.000840   0.000481   0.000803
     7  O    0.000436   0.000616   0.001047
     8  C   -0.000004  -0.000052   0.000000
     9  C    0.210212   0.216153   0.224135
    10  F    0.000000   0.000000   0.000000
    11  F    0.000000   0.000000   0.000000
    12  F    0.000000   0.000000   0.000000
    13  F    9.193231  -0.031829  -0.032041
    14  F   -0.031829   9.174080  -0.032385
    15  F   -0.032041  -0.032385   9.191068
 Mulliken atomic charges:
              1
     1  N   -0.952156
     2  S    1.538738
     3  S    1.526220
     4  O   -0.683877
     5  O   -0.672363
     6  O   -0.669536
     7  O   -0.687649
     8  C    0.836600
     9  C    0.830069
    10  F   -0.355965
    11  F   -0.338875
    12  F   -0.341783
    13  F   -0.344787
    14  F   -0.333030
    15  F   -0.351606
 Sum of Mulliken atomic charges =  -1.00000
 Mulliken charges with hydrogens summed into heavy atoms:
              1
     1  N   -0.952156
     2  S    1.538738
     3  S    1.526220
     4  O   -0.683877
     5  O   -0.672363
     6  O   -0.669536
     7  O   -0.687649
     8  C    0.836600
     9  C    0.830069
    10  F   -0.355965
    11  F   -0.338875
    12  F   -0.341783
    13  F   -0.344787
    14  F   -0.333030
    15  F   -0.351606
 Sum of Mulliken charges with hydrogens summed into heavy atoms =  -1.00000
 DipInt: DoE/N= T F RetVal/Mat= T F Init=T NMatP=  1 IDeriv=0 Min/MaxMlt=  0  4
 Entering OneElI...
 OneElI was handed    33412947 working-precision words.
 Multipole integrals L=0 to 4 MinM= 0 MaxM= 0.
 Requested accuracy = 0.1000D-12
 PrsmSu:  NPrtUS=   1 ThrOK=F IAlg=1
 PRISM was handed    33227311 working-precision words and  1597 shell-pairs
 IPart=  0 NShTot=        1597 NBatch=          44 AvBLen=        36.3
 Electronic moments (au):
       -138.00000000        153.96170041         -5.46478246       -490.12361070
       -698.20614328       -869.73322226      -3710.05190914         81.85680304
        518.20274929       -688.02133103       1960.38157273       -272.66829957
     -27736.10902070        788.32230853        -77.92410703      -2133.33675636
       3066.31527917      -4084.38776571      -2795.49486670        668.80984764
      -8831.85570776     -12772.49042549    -231789.57344477        995.44668323
       5433.30552886        726.91518774      -9557.73711082      20716.68249529
     -31946.05025946      -3663.33031366     -13507.06558077     -19342.16050630
      -2134.62640774       3307.11083149       4140.67743989
 Electronic spatial extent (au):  <R**2>=           5277.9913
 DipInt: DoE/N= F T RetVal/Mat= T F Init=T NMatP=  1 IDeriv=0 Min/MaxMlt=  0  4
 Nuclear    moments (au):
        137.00000000       -151.56926394          4.15928722        486.85203334
        613.10404444        785.65549859       3617.79844391        -81.95538139
       -512.43309781        679.42672874      -1640.08490051        202.94928960
      26856.04388135       -684.88075481         59.14969061       1843.61525134
      -2942.20750697       4015.25933830       2484.86055232       -665.53202267
       6474.88559108       9983.70047102     220127.81884737       -818.13660388
      -4423.24118262       -615.19495723       8217.09890802     -19664.93040016
      30456.36085245       2797.45500532      11138.18755129      16796.18072686
       1721.32067240      -2961.23442664      -4046.10466285
 Total      moments (au):
         -1.00000000          2.39243647         -1.30549524         -3.27157736
        -85.10209884        -84.07772367        -92.25346523         -0.09857835
          5.76965148         -8.59460229        320.29667222        -69.71900996
       -880.06513935        103.44155372        -18.77441642       -289.72150502
        124.10777219        -69.12842741       -310.63431438          3.27782497
      -2356.97011667      -2788.78995447     -11661.75459741        177.31007935
       1010.06434625        111.72023051      -1340.63820280       1051.75209513
      -1489.68940701       -865.87530835      -2368.87802948      -2545.97977943
       -413.30573533        345.87640485         94.57277705
 Traceless Quadrup. (au):
          2.04233041          3.06670558         -5.10903598         -0.09857835
          5.76965148         -8.59460229
 Charge=             -1.0000 electrons
 Dipole moment (field-independent basis, Debye):
    X=              6.0810    Y=             -3.3182    Z=             -8.3155  Tot=             10.8230
 Quadrupole moment (field-independent basis, Debye-Ang):
   XX=           -114.4652   YY=           -113.0874   ZZ=           -124.0841
   XY=             -0.1326   XZ=              7.7604   YZ=            -11.5600
 Traceless Quadrupole moment (field-independent basis, Debye-Ang):
   XX=              2.7470   YY=              4.1248   ZZ=             -6.8718
   XY=             -0.1326   XZ=              7.7604   YZ=            -11.5600
 Octapole moment (field-independent basis, Debye-Ang**2):
  XXX=            227.9748  YYY=            -49.6233  ZZZ=           -626.3964  XYY=             73.6257
  XXY=            -13.3629  XXZ=           -206.2126  XZZ=             88.3351  YZZ=            -49.2029
  YYZ=           -221.0975  XYZ=              2.3330
 Hexadecapole moment (field-independent basis, Debye-Ang**3):
 XXXX=           -887.7479 YYYY=          -1050.3920 ZZZZ=          -4392.3757 XXXY=             66.7835
 XXXZ=            380.4386 YYYX=             42.0792 YYYZ=           -504.9486 ZZZX=            396.1402
 ZZZY=           -561.0884 XXYY=           -326.1301 XXZZ=           -892.2330 YYZZ=           -958.9380
 XXYZ=           -155.6707 YYXZ=            130.2736 ZZXY=             35.6206
 N-N= 1.603786268115D+03 E-N=-7.557017928678D+03  KE= 1.818206659439D+03
 Entering OneElI...
 OneElI was handed    33303761 working-precision words.
 Calculate electrostatic properties
    NBasis =   233  MinDer = 0  MaxDer = 0
    NGrid  =    15  NMatD  =   1
 Requested accuracy = 0.1000D-12
 PrsmSu:  NPrtUS=   1 ThrOK=F IAlg=1
 PRISM was handed    33131431 working-precision words and  1443 shell-pairs
 IPart=  0 NShTot=       21645 NBatch=        1443 AvBLen=        15.0
 --------------------------------------------------------
       Center         ----      EFG at Nuclei      ----
                      3XX-RR        3YY-RR        3ZZ-RR
 --------------------------------------------------------
     1   Atom        0.192552      0.110443     -0.302995
     2   Atom       -0.210716      0.096079      0.114638
     3   Atom        0.375411      0.011512     -0.386923
     4   Atom        0.262376     -0.528025      0.265649
     5   Atom        0.147458      0.278750     -0.426208
     6   Atom        0.011641     -0.716987      0.705346
     7   Atom       -1.352971      0.693146      0.659825
     8   Atom        0.089765     -0.058239     -0.031526
     9   Atom       -0.163967     -0.010869      0.174835
    10   Atom        0.671329     -0.337250     -0.334080
    11   Atom        0.026810     -0.166752      0.139942
    12   Atom       -0.208038      0.199224      0.008814
    13   Atom       -2.657835      1.251071      1.406764
    14   Atom        0.473715     -1.874491      1.400776
    15   Atom        1.260662      0.510555     -1.771217
 --------------------------------------------------------
                        XY            XZ            YZ
 --------------------------------------------------------
     1   Atom       -0.225638     -0.145305     -0.870226
     2   Atom        0.041875      0.093871     -0.397506
     3   Atom        0.287290      0.008618      0.104171
     4   Atom       -0.677699      0.627451      0.723776
     5   Atom        0.672095     -0.715290      0.702177
     6   Atom       -0.997987     -0.198901     -0.127495
     7   Atom        0.262399      0.246455      0.070295
     8   Atom       -0.214118     -0.234406      0.154797
     9   Atom       -0.089103      0.138366     -0.282216
    10   Atom       -1.124426     -1.122392     -1.766009
    11   Atom       -1.483459      1.349189      1.439686
    12   Atom        1.423237     -1.506104      1.322189
    13   Atom        0.848401     -0.021073      0.010399
    14   Atom       -1.775922      0.075419      0.142439
    15   Atom        0.389169      0.704689     -1.682148
 --------------------------------------------------------


 ---------------------------------------------------------------------------------
              Nuclear Quadrupole in Principal Axis System
 ---------------------------------------------------------------------------------

       Atom             a.u.   MegaHertz   Gauss  10(-4) cm-1        Axes

              Baa    -1.0431   -40.229   -14.355   -13.419  0.2019  0.6147  0.7625
     1 N(14)  Bbb     0.2319     8.945     3.192     2.984  0.9682 -0.0080 -0.2499
              Bcc     0.8111    31.284    11.163    10.435 -0.1475  0.7887 -0.5968
 
              Baa    -0.3559   -14.591    -5.206    -4.867 -0.5541  0.5781  0.5990
     2 S(33)  Bbb    -0.1491    -6.114    -2.182    -2.039  0.8307  0.4304  0.3530
              Bcc     0.5050    20.705     7.388     6.906  0.0537 -0.6932  0.7188
 
              Baa    -0.4184   -17.152    -6.120    -5.721  0.0964 -0.2948  0.9507
     3 S(33)  Bbb    -0.1188    -4.872    -1.738    -1.625 -0.4828  0.8214  0.3037
              Bcc     0.5372    22.024     7.859     7.346  0.8704  0.4882  0.0632
 
              Baa    -1.4404   104.223    37.189    34.765  0.4718  0.7358 -0.4857
     4 O(17)  Bbb     0.5471   -39.588   -14.126   -13.205 -0.5671  0.6751  0.4718
              Bcc     0.8933   -64.636   -23.064   -21.560  0.6751  0.0528  0.7358
 
              Baa    -1.4463   104.650    37.342    34.907  0.5203 -0.4880  0.7008
     5 O(17)  Bbb     0.5551   -40.170   -14.334   -13.399 -0.5744  0.4073  0.7101
              Bcc     0.8911   -64.480   -23.008   -21.508  0.6320  0.7720  0.0683
 
              Baa    -1.4374   104.009    37.113    34.694  0.5737  0.8127  0.1016
     6 O(17)  Bbb     0.6288   -45.500   -16.236   -15.177  0.5666 -0.4834  0.6673
              Bcc     0.8086   -58.508   -20.877   -19.516 -0.5914  0.3252  0.7378
 
              Baa    -1.4130   102.240    36.482    34.104  0.9864 -0.1191 -0.1132
     7 O(17)  Bbb     0.6046   -43.746   -15.610   -14.592  0.0107 -0.6409  0.7675
              Bcc     0.8084   -58.494   -20.872   -19.511  0.1640  0.7583  0.6309
 
              Baa    -0.2175   -29.191   -10.416    -9.737  0.7183  0.4489  0.5316
     8 C(13)  Bbb    -0.2002   -26.870    -9.588    -8.963  0.0200  0.7504 -0.6607
              Bcc     0.4178    56.061    20.004    18.700  0.6955 -0.4852 -0.5300
 
              Baa    -0.2215   -29.721   -10.605    -9.914 -0.5730  0.5597  0.5986
     9 C(13)  Bbb    -0.2035   -27.303    -9.742    -9.107  0.7742  0.6093  0.1714
              Bcc     0.4249    57.024    20.347    19.021  0.2688 -0.5617  0.7825
 
              Baa    -2.8238 -1418.206  -506.051  -473.062  0.4138  0.6441  0.6434
    10 F(19)  Bbb     1.3935   699.844   249.722   233.443  0.9102 -0.2800 -0.3051
              Bcc     1.4304   718.362   256.329   239.620 -0.0163  0.7119 -0.7021
 
              Baa    -2.8560 -1434.360  -511.815  -478.451  0.5710  0.6094 -0.5500
    11 F(19)  Bbb     1.4166   711.472   253.871   237.322  0.7260 -0.6876 -0.0082
              Bcc     1.4394   722.887   257.944   241.129  0.3832  0.3946  0.8351
 
              Baa    -2.8480 -1430.355  -510.386  -477.115  0.6174 -0.5376  0.5743
    12 F(19)  Bbb     1.4103   708.298   252.738   236.263 -0.6601  0.0431  0.7500
              Bcc     1.4377   722.058   257.648   240.853  0.4279  0.8421  0.3282
 
              Baa    -2.8342 -1423.385  -507.899  -474.790  0.9791 -0.2033  0.0054
    13 F(19)  Bbb     1.4053   705.779   251.839   235.423 -0.0578 -0.2528  0.9658
              Bcc     1.4289   717.606   256.060   239.368  0.1950  0.9459  0.2593
 
              Baa    -2.8355 -1424.044  -508.134  -475.010  0.4732  0.8801 -0.0380
    14 F(19)  Bbb     1.4069   706.561   252.118   235.683  0.0596  0.0111  0.9982
              Bcc     1.4286   717.483   256.016   239.327  0.8789 -0.4746 -0.0472
 
              Baa    -2.8216 -1417.069  -505.645  -472.683 -0.1934  0.4601  0.8666
    15 F(19)  Bbb     1.3948   700.481   249.949   233.655 -0.4732  0.7300 -0.4932
              Bcc     1.4268   716.588   255.696   239.028  0.8595  0.5054 -0.0765
 

 ---------------------------------------------------------------------------------

 No NMR shielding tensors so no spin-rotation constants.
 Leave Link  601 at Thu Apr 12 07:11:07 2018, MaxMem=   33554432 cpu:       0.1
 Merz-Kollman atomic radii used.
 Atom Element Radius
    1     7    1.50
    2    16    1.75
    3    16    1.75
    4     8    1.40
    5     8    1.40
    6     8    1.40
    7     8    1.40
    8     6    1.50
    9     6    1.50
   10     9    1.35
   11     9    1.35
   12     9    1.35
   13     9    1.35
   14     9    1.35
   15     9    1.35
 Generate VDW surfaces: Layer= 4 Dens= 6 Start= 1.400 Inc= 0.200

 **********************************************************************

            Electrostatic Properties Using The SCF Density

 **********************************************************************

       Atomic Center    1 is at  -0.328000  0.532000  1.567000
       Atomic Center    2 is at  -1.288000 -0.370000  0.695000
       Atomic Center    3 is at  -0.760000  1.387000  2.809000
       Atomic Center    4 is at  -1.964000 -1.410000  1.412000
       Atomic Center    5 is at  -2.031000  0.350000 -0.297000
       Atomic Center    6 is at   0.082000  2.537000  2.935000
       Atomic Center    7 is at  -2.175000  1.543000  2.965000
       Atomic Center    8 is at   0.007000 -1.230000 -0.245000
       Atomic Center    9 is at  -0.261000  0.356000  4.223000
       Atomic Center   10 is at  -0.573000 -2.070000 -1.081000
       Atomic Center   11 is at   0.738000 -0.399000 -0.950000
       Atomic Center   12 is at   0.800000 -1.922000  0.540000
       Atomic Center   13 is at   1.030000  0.108000  4.197000
       Atomic Center   14 is at  -0.900000 -0.788000  4.238000
       Atomic Center   15 is at  -0.530000  0.992000  5.346000
      ESP Fit Center   16 is at   0.291171 -1.100619  2.733697
      ESP Fit Center   17 is at   1.612147  0.532000  2.370635
      ESP Fit Center   18 is at   0.580781 -1.182143  2.370635
      ESP Fit Center   19 is at   0.928025 -0.946706  2.370635
      ESP Fit Center   20 is at   1.216538 -0.642127  2.370635
      ESP Fit Center   21 is at   1.432830 -0.282647  2.370635
      ESP Fit Center   22 is at   1.566787  0.114926  2.370635
      ESP Fit Center   23 is at   1.731649  0.532000  1.976690
      ESP Fit Center   24 is at   1.689488  0.946604  1.976690
      ESP Fit Center   25 is at   1.564731  1.344235  1.976690
      ESP Fit Center   26 is at   1.362485 -0.644612  1.976690
      ESP Fit Center   27 is at   1.564731 -0.280235  1.976690
      ESP Fit Center   28 is at   1.689488  0.117396  1.976690
      ESP Fit Center   29 is at   1.772000  0.532000  1.567000
      ESP Fit Center   30 is at   1.731649  0.941690  1.567000
      ESP Fit Center   31 is at   1.612147  1.335635  1.567000
      ESP Fit Center   32 is at   1.418086  1.698697  1.567000
      ESP Fit Center   33 is at   1.612147 -0.271635  1.567000
      ESP Fit Center   34 is at   1.731649  0.122310  1.567000
      ESP Fit Center   35 is at   1.731649  0.532000  1.157310
      ESP Fit Center   36 is at   1.689488  0.946604  1.157310
      ESP Fit Center   37 is at   1.564731  1.344235  1.157310
      ESP Fit Center   38 is at   1.362485  1.708612  1.157310
      ESP Fit Center   39 is at   1.091030  2.024819  1.157310
      ESP Fit Center   40 is at   1.564731 -0.280235  1.157310
      ESP Fit Center   41 is at   1.689488  0.117396  1.157310
      ESP Fit Center   42 is at   1.612147  0.532000  0.763365
      ESP Fit Center   43 is at   1.566787  0.949074  0.763365
      ESP Fit Center   44 is at   1.432830  1.346647  0.763365
      ESP Fit Center   45 is at   1.216538  1.706127  0.763365
      ESP Fit Center   46 is at   0.928025  2.010706  0.763365
      ESP Fit Center   47 is at   0.580781  2.246143  0.763365
      ESP Fit Center   48 is at   0.191044  2.401429  0.763365
      ESP Fit Center   49 is at   1.566787  0.114926  0.763365
      ESP Fit Center   50 is at   1.367348  0.949866  0.400303
      ESP Fit Center   51 is at   1.218083  1.343447  0.400303
      ESP Fit Center   52 is at   0.978964  1.689869  0.400303
      ESP Fit Center   53 is at   0.663890  1.969001  0.400303
      ESP Fit Center   54 is at   0.291171  2.164619  0.400303
      ESP Fit Center   55 is at  -0.117533  2.265355  0.400303
      ESP Fit Center   56 is at  -0.538467  2.265355  0.400303
      ESP Fit Center   57 is at  -0.947171  2.164619  0.400303
      ESP Fit Center   58 is at   0.921198  1.334811  0.082076
      ESP Fit Center   59 is at   0.644419  1.654231  0.082076
      ESP Fit Center   60 is at   0.288860  1.882735  0.082076
      ESP Fit Center   61 is at  -0.116673  2.001810  0.082076
      ESP Fit Center   62 is at  -0.539327  2.001810  0.082076
      ESP Fit Center   63 is at   0.534200  1.317999 -0.179086
      ESP Fit Center   64 is at   0.192042  1.576385 -0.179086
      ESP Fit Center   65 is at  -0.220351  1.693721 -0.179086
      ESP Fit Center   66 is at  -0.213095 -1.520942  2.571809
      ESP Fit Center   67 is at  -0.117829 -1.837348  2.269830
      ESP Fit Center   68 is at  -3.368993  0.043935  1.920000
      ESP Fit Center   69 is at  -3.434781  0.461668  1.532949
      ESP Fit Center   70 is at  -3.551047  0.053037  1.532949
      ESP Fit Center   71 is at  -2.838904  1.478296  1.120438
      ESP Fit Center   72 is at  -3.136296  1.180904  1.120438
      ESP Fit Center   73 is at  -3.377528  0.836389  1.120438
      ESP Fit Center   74 is at  -3.555271  0.455219  1.120438
      ESP Fit Center   75 is at  -3.664123  0.048975  1.120438
      ESP Fit Center   76 is at  -3.700779 -0.370000  1.120438
      ESP Fit Center   77 is at  -3.729174 -0.162225  0.695000
      ESP Fit Center   78 is at  -3.729174 -0.577775  0.695000
      ESP Fit Center   79 is at  -3.664123 -0.788975  0.269562
      ESP Fit Center   80 is at  -3.555271 -1.195219  0.269562
      ESP Fit Center   81 is at  -0.657960  1.844360 -0.142949
      ESP Fit Center   82 is at  -3.434781 -1.201668 -0.142949
      ESP Fit Center   83 is at  -3.245410 -1.581977 -0.142949
      ESP Fit Center   84 is at  -0.109212  1.394181 -0.530000
      ESP Fit Center   85 is at  -0.476037  1.590253 -0.530000
      ESP Fit Center   86 is at  -3.248253 -1.181963 -0.530000
      ESP Fit Center   87 is at  -3.052181 -1.548788 -0.530000
      ESP Fit Center   88 is at  -2.788312 -1.870312 -0.530000
      ESP Fit Center   89 is at  -2.466788 -2.134181 -0.530000
      ESP Fit Center   90 is at  -2.755348 -1.540171 -0.879830
      ESP Fit Center   91 is at  -2.458171 -1.837348 -0.879830
      ESP Fit Center   92 is at  -2.509613 -1.363856 -1.181809
      ESP Fit Center   93 is at  -0.867470  2.958158  4.685809
      ESP Fit Center   94 is at  -1.287378  2.870900  4.685809
      ESP Fit Center   95 is at  -1.668173  2.673588  4.685809
      ESP Fit Center   96 is at  -1.177629  3.216753  4.383830
      ESP Fit Center   97 is at  -1.574317  3.077946  4.383830
      ESP Fit Center   98 is at  -1.571963  3.347253  4.034000
      ESP Fit Center   99 is at  -1.786200  3.447887  3.646949
      ESP Fit Center  100 is at  -1.585219  3.654271  3.234438
      ESP Fit Center  101 is at  -1.966389  3.476528  3.234438
      ESP Fit Center  102 is at   1.690000  1.387000  2.809000
      ESP Fit Center  103 is at  -1.477416  3.729609  2.809000
      ESP Fit Center  104 is at  -1.862999  3.574668  2.809000
      ESP Fit Center  105 is at   1.652779  1.387000  2.383562
      ESP Fit Center  106 is at  -1.585219  3.654271  2.383562
      ESP Fit Center  107 is at  -1.966389  3.476528  2.383562
      ESP Fit Center  108 is at   1.616123  0.968025  2.383562
      ESP Fit Center  109 is at  -1.390040  3.601360  1.971051
      ESP Fit Center  110 is at  -1.786200  3.447887  1.971051
      ESP Fit Center  111 is at  -1.173935  3.467993  1.584000
      ESP Fit Center  112 is at  -1.571963  3.347253  1.584000
      ESP Fit Center  113 is at  -1.938788  3.151181  1.584000
      ESP Fit Center  114 is at  -0.760000  3.263809  1.234170
      ESP Fit Center  115 is at  -1.177629  3.216753  1.234170
      ESP Fit Center  116 is at  -1.574317  3.077946  1.234170
      ESP Fit Center  117 is at  -1.930171  2.854348  1.234170
      ESP Fit Center  118 is at  -2.227348  2.557171  1.234170
      ESP Fit Center  119 is at   0.314905  2.537942  0.932191
      ESP Fit Center  120 is at  -0.035476  2.785268  0.932191
      ESP Fit Center  121 is at  -0.439591  2.928891  0.932191
      ESP Fit Center  122 is at  -0.867470  2.958158  0.932191
      ESP Fit Center  123 is at  -1.287378  2.870900  0.932191
      ESP Fit Center  124 is at  -1.668173  2.673588  0.932191
      ESP Fit Center  125 is at  -1.981613  2.380856  0.932191
      ESP Fit Center  126 is at  -2.204452  2.014414  0.932191
      ESP Fit Center  127 is at  -0.147500  2.447881  0.687238
      ESP Fit Center  128 is at  -0.547281  2.593389  0.687238
      ESP Fit Center  129 is at  -0.972719  2.593389  0.687238
      ESP Fit Center  130 is at  -1.372500  2.447881  0.687238
      ESP Fit Center  131 is at  -1.698404  2.174415  0.687238
      ESP Fit Center  132 is at  -2.654399 -1.011398  3.202549
      ESP Fit Center  133 is at  -2.761204 -1.410000  3.202549
      ESP Fit Center  134 is at  -2.654399 -1.808602  3.202549
      ESP Fit Center  135 is at  -2.362602 -2.100399  3.202549
      ESP Fit Center  136 is at  -1.964000 -2.207204  3.202549
      ESP Fit Center  137 is at  -2.658271 -0.490637  2.997673
      ESP Fit Center  138 is at  -2.943500 -0.803519  2.997673
      ESP Fit Center  139 is at  -3.096443 -1.198310  2.997673
      ESP Fit Center  140 is at  -3.096443 -1.621690  2.997673
      ESP Fit Center  141 is at  -2.943500 -2.016481  2.997673
      ESP Fit Center  142 is at  -2.658271 -2.329363  2.997673
      ESP Fit Center  143 is at  -2.279276 -2.518080  2.997673
      ESP Fit Center  144 is at  -1.857701 -2.557145  2.997673
      ESP Fit Center  145 is at  -1.450483 -2.441281  2.997673
      ESP Fit Center  146 is at  -2.917846 -0.309202  2.723496
      ESP Fit Center  147 is at  -3.189339 -0.622522  2.723496
      ESP Fit Center  148 is at  -3.361563 -0.999639  2.723496
      ESP Fit Center  149 is at  -3.420564 -1.410000  2.723496
      ESP Fit Center  150 is at  -3.361563 -1.820361  2.723496
      ESP Fit Center  151 is at  -3.189339 -2.197478  2.723496
      ESP Fit Center  152 is at  -2.917846 -2.510798  2.723496
      ESP Fit Center  153 is at  -2.569078 -2.734937  2.723496
      ESP Fit Center  154 is at  -2.171291 -2.851738  2.723496
      ESP Fit Center  155 is at  -1.756709 -2.851738  2.723496
      ESP Fit Center  156 is at  -1.358922 -2.734937  2.723496
      ESP Fit Center  157 is at  -1.010154 -2.510798  2.723496
      ESP Fit Center  158 is at  -0.738661 -2.197478  2.723496
      ESP Fit Center  159 is at  -3.337233 -0.412288  2.392000
      ESP Fit Center  160 is at  -3.542212 -0.785142  2.392000
      ESP Fit Center  161 is at  -3.648025 -1.197258  2.392000
      ESP Fit Center  162 is at  -3.648025 -1.622742  2.392000
      ESP Fit Center  163 is at  -3.542212 -2.034858  2.392000
      ESP Fit Center  164 is at  -3.337233 -2.407712  2.392000
      ESP Fit Center  165 is at  -3.045970 -2.717877  2.392000
      ESP Fit Center  166 is at  -2.686722 -2.945862  2.392000
      ESP Fit Center  167 is at  -2.282063 -3.077344  2.392000
      ESP Fit Center  168 is at  -1.857419 -3.104060  2.392000
      ESP Fit Center  169 is at  -1.439472 -3.024333  2.392000
      ESP Fit Center  170 is at  -1.054482 -2.843170  2.392000
      ESP Fit Center  171 is at  -0.726642 -2.571957  2.392000
      ESP Fit Center  172 is at  -0.476548 -2.227733  2.392000
      ESP Fit Center  173 is at  -3.421389 -0.247771  2.017673
      ESP Fit Center  174 is at  -3.643470 -0.601210  2.017673
      ESP Fit Center  175 is at  -3.781335 -0.995205  2.017673
      ESP Fit Center  176 is at  -3.828071 -1.410000  2.017673
      ESP Fit Center  177 is at  -3.781335 -1.824795  2.017673
      ESP Fit Center  178 is at  -3.643470 -2.218790  2.017673
      ESP Fit Center  179 is at  -3.421389 -2.572229  2.017673
      ESP Fit Center  180 is at  -3.126229 -2.867389  2.017673
      ESP Fit Center  181 is at  -2.772790 -3.089470  2.017673
      ESP Fit Center  182 is at  -2.378795 -3.227335  2.017673
      ESP Fit Center  183 is at  -1.964000 -3.274071  2.017673
      ESP Fit Center  184 is at  -1.549205 -3.227335  2.017673
      ESP Fit Center  185 is at  -1.155210 -3.089470  2.017673
      ESP Fit Center  186 is at  -0.801771 -2.867389  2.017673
      ESP Fit Center  187 is at  -0.506611 -2.572229  2.017673
      ESP Fit Center  188 is at  -3.634240 -0.405050  1.616876
      ESP Fit Center  189 is at  -3.811225 -0.787597  1.616876
      ESP Fit Center  190 is at  -3.901836 -1.199248  1.616876
      ESP Fit Center  191 is at  -3.901836 -1.620752  1.616876
      ESP Fit Center  192 is at  -3.811225 -2.032403  1.616876
      ESP Fit Center  193 is at  -3.634240 -2.414950  1.616876
      ESP Fit Center  194 is at  -3.379156 -2.750507  1.616876
      ESP Fit Center  195 is at  -3.057901 -3.023383  1.616876
      ESP Fit Center  196 is at  -2.685497 -3.220820  1.616876
      ESP Fit Center  197 is at  -2.279356 -3.333584  1.616876
      ESP Fit Center  198 is at  -1.858469 -3.356404  1.616876
      ESP Fit Center  199 is at  -1.442517 -3.288212  1.616876
      ESP Fit Center  200 is at  -1.050949 -3.132197  1.616876
      ESP Fit Center  201 is at  -0.702074 -2.895654  1.616876
      ESP Fit Center  202 is at  -3.811225 -0.787597  1.207124
      ESP Fit Center  203 is at  -3.901836 -1.199248  1.207124
      ESP Fit Center  204 is at  -3.901836 -1.620752  1.207124
      ESP Fit Center  205 is at  -3.811225 -2.032403  1.207124
      ESP Fit Center  206 is at  -3.634240 -2.414950  1.207124
      ESP Fit Center  207 is at  -3.379156 -2.750507  1.207124
      ESP Fit Center  208 is at  -3.057901 -3.023383  1.207124
      ESP Fit Center  209 is at  -2.685497 -3.220820  1.207124
      ESP Fit Center  210 is at  -2.279356 -3.333584  1.207124
      ESP Fit Center  211 is at  -1.858469 -3.356404  1.207124
      ESP Fit Center  212 is at  -1.442517 -3.288212  1.207124
      ESP Fit Center  213 is at  -1.050949 -3.132197  1.207124
      ESP Fit Center  214 is at  -0.702074 -2.895654  1.207124
      ESP Fit Center  215 is at  -3.781335 -0.995205  0.806327
      ESP Fit Center  216 is at  -3.828071 -1.410000  0.806327
      ESP Fit Center  217 is at  -3.781335 -1.824795  0.806327
      ESP Fit Center  218 is at  -3.643470 -2.218790  0.806327
      ESP Fit Center  219 is at  -3.421389 -2.572229  0.806327
      ESP Fit Center  220 is at  -3.126229 -2.867389  0.806327
      ESP Fit Center  221 is at  -2.772790 -3.089470  0.806327
      ESP Fit Center  222 is at  -2.378795 -3.227335  0.806327
      ESP Fit Center  223 is at  -1.964000 -3.274071  0.806327
      ESP Fit Center  224 is at  -1.549205 -3.227335  0.806327
      ESP Fit Center  225 is at  -1.155210 -3.089470  0.806327
      ESP Fit Center  226 is at  -3.648025 -1.197258  0.432000
      ESP Fit Center  227 is at  -3.648025 -1.622742  0.432000
      ESP Fit Center  228 is at  -3.542212 -2.034858  0.432000
      ESP Fit Center  229 is at  -3.337233 -2.407712  0.432000
      ESP Fit Center  230 is at  -3.045970 -2.717877  0.432000
      ESP Fit Center  231 is at  -2.686722 -2.945862  0.432000
      ESP Fit Center  232 is at  -2.282063 -3.077344  0.432000
      ESP Fit Center  233 is at  -1.857419 -3.104060  0.432000
      ESP Fit Center  234 is at  -1.439472 -3.024333  0.432000
      ESP Fit Center  235 is at  -3.361563 -1.820361  0.100504
      ESP Fit Center  236 is at  -3.189339 -2.197478  0.100504
      ESP Fit Center  237 is at  -2.917846 -2.510798  0.100504
      ESP Fit Center  238 is at  -2.569078 -2.734937  0.100504
      ESP Fit Center  239 is at  -2.171291 -2.851738  0.100504
      ESP Fit Center  240 is at  -2.943500 -2.016481 -0.173673
      ESP Fit Center  241 is at  -2.658271 -2.329363 -0.173673
      ESP Fit Center  242 is at  -2.279276 -2.518080 -0.173673
      ESP Fit Center  243 is at  -2.636078  1.674937  1.014496
      ESP Fit Center  244 is at  -2.984846  1.450798  1.014496
      ESP Fit Center  245 is at  -3.256339  1.137478  1.014496
      ESP Fit Center  246 is at  -1.924419  2.044060  0.683000
      ESP Fit Center  247 is at  -2.349063  2.017344  0.683000
      ESP Fit Center  248 is at  -2.753722  1.885862  0.683000
      ESP Fit Center  249 is at  -3.112970  1.657877  0.683000
      ESP Fit Center  250 is at  -3.404233  1.347712  0.683000
      ESP Fit Center  251 is at  -3.609212  0.974858  0.683000
      ESP Fit Center  252 is at  -3.715025  0.562742  0.683000
      ESP Fit Center  253 is at  -3.715025  0.137258  0.683000
      ESP Fit Center  254 is at  -1.616205  2.167335  0.308673
      ESP Fit Center  255 is at  -2.031000  2.214071  0.308673
      ESP Fit Center  256 is at  -2.445795  2.167335  0.308673
      ESP Fit Center  257 is at  -2.839790  2.029470  0.308673
      ESP Fit Center  258 is at  -3.193229  1.807389  0.308673
      ESP Fit Center  259 is at  -3.488389  1.512229  0.308673
      ESP Fit Center  260 is at  -3.710470  1.158790  0.308673
      ESP Fit Center  261 is at  -3.848335  0.764795  0.308673
      ESP Fit Center  262 is at  -3.895071  0.350000  0.308673
      ESP Fit Center  263 is at  -3.848335 -0.064795  0.308673
      ESP Fit Center  264 is at  -3.710470 -0.458790  0.308673
      ESP Fit Center  265 is at  -1.117949  2.072197 -0.092124
      ESP Fit Center  266 is at  -1.509517  2.228212 -0.092124
      ESP Fit Center  267 is at  -1.925469  2.296404 -0.092124
      ESP Fit Center  268 is at  -2.346356  2.273584 -0.092124
      ESP Fit Center  269 is at  -2.752497  2.160820 -0.092124
      ESP Fit Center  270 is at  -3.124901  1.963383 -0.092124
      ESP Fit Center  271 is at  -3.446156  1.690507 -0.092124
      ESP Fit Center  272 is at  -3.701240  1.354950 -0.092124
      ESP Fit Center  273 is at  -3.878225  0.972403 -0.092124
      ESP Fit Center  274 is at  -3.968836  0.560752 -0.092124
      ESP Fit Center  275 is at  -3.968836  0.139248 -0.092124
      ESP Fit Center  276 is at  -3.878225 -0.272403 -0.092124
      ESP Fit Center  277 is at  -3.701240 -0.654950 -0.092124
      ESP Fit Center  278 is at  -0.769074  1.835654 -0.501876
      ESP Fit Center  279 is at  -1.117949  2.072197 -0.501876
      ESP Fit Center  280 is at  -1.509517  2.228212 -0.501876
      ESP Fit Center  281 is at  -1.925469  2.296404 -0.501876
      ESP Fit Center  282 is at  -2.346356  2.273584 -0.501876
      ESP Fit Center  283 is at  -2.752497  2.160820 -0.501876
      ESP Fit Center  284 is at  -3.124901  1.963383 -0.501876
      ESP Fit Center  285 is at  -3.446156  1.690507 -0.501876
      ESP Fit Center  286 is at  -3.701240  1.354950 -0.501876
      ESP Fit Center  287 is at  -3.878225  0.972403 -0.501876
      ESP Fit Center  288 is at  -3.968836  0.560752 -0.501876
      ESP Fit Center  289 is at  -3.968836  0.139248 -0.501876
      ESP Fit Center  290 is at  -3.878225 -0.272403 -0.501876
      ESP Fit Center  291 is at  -3.701240 -0.654950 -0.501876
      ESP Fit Center  292 is at  -3.446156 -0.990507 -0.501876
      ESP Fit Center  293 is at  -0.573611  1.512229 -0.902673
      ESP Fit Center  294 is at  -0.868771  1.807389 -0.902673
      ESP Fit Center  295 is at  -1.222210  2.029470 -0.902673
      ESP Fit Center  296 is at  -1.616205  2.167335 -0.902673
      ESP Fit Center  297 is at  -2.031000  2.214071 -0.902673
      ESP Fit Center  298 is at  -2.445795  2.167335 -0.902673
      ESP Fit Center  299 is at  -2.839790  2.029470 -0.902673
      ESP Fit Center  300 is at  -3.193229  1.807389 -0.902673
      ESP Fit Center  301 is at  -3.488389  1.512229 -0.902673
      ESP Fit Center  302 is at  -3.710470  1.158790 -0.902673
      ESP Fit Center  303 is at  -3.848335  0.764795 -0.902673
      ESP Fit Center  304 is at  -3.895071  0.350000 -0.902673
      ESP Fit Center  305 is at  -3.848335 -0.064795 -0.902673
      ESP Fit Center  306 is at  -3.710470 -0.458790 -0.902673
      ESP Fit Center  307 is at  -3.488389 -0.812229 -0.902673
      ESP Fit Center  308 is at  -3.193229 -1.107389 -0.902673
      ESP Fit Center  309 is at  -0.543548  1.167733 -1.277000
      ESP Fit Center  310 is at  -0.793642  1.511957 -1.277000
      ESP Fit Center  311 is at  -1.121482  1.783170 -1.277000
      ESP Fit Center  312 is at  -1.506472  1.964333 -1.277000
      ESP Fit Center  313 is at  -1.924419  2.044060 -1.277000
      ESP Fit Center  314 is at  -2.349063  2.017344 -1.277000
      ESP Fit Center  315 is at  -2.753722  1.885862 -1.277000
      ESP Fit Center  316 is at  -3.112970  1.657877 -1.277000
      ESP Fit Center  317 is at  -3.404233  1.347712 -1.277000
      ESP Fit Center  318 is at  -3.609212  0.974858 -1.277000
      ESP Fit Center  319 is at  -3.715025  0.562742 -1.277000
      ESP Fit Center  320 is at  -3.715025  0.137258 -1.277000
      ESP Fit Center  321 is at  -3.609212 -0.274858 -1.277000
      ESP Fit Center  322 is at  -3.404233 -0.647712 -1.277000
      ESP Fit Center  323 is at  -3.112970 -0.957877 -1.277000
      ESP Fit Center  324 is at  -2.753722 -1.185862 -1.277000
      ESP Fit Center  325 is at  -0.633437  0.760361 -1.608496
      ESP Fit Center  326 is at  -0.805661  1.137478 -1.608496
      ESP Fit Center  327 is at  -1.077154  1.450798 -1.608496
      ESP Fit Center  328 is at  -1.425922  1.674937 -1.608496
      ESP Fit Center  329 is at  -1.823709  1.791738 -1.608496
      ESP Fit Center  330 is at  -2.238291  1.791738 -1.608496
      ESP Fit Center  331 is at  -2.636078  1.674937 -1.608496
      ESP Fit Center  332 is at  -2.984846  1.450798 -1.608496
      ESP Fit Center  333 is at  -3.256339  1.137478 -1.608496
      ESP Fit Center  334 is at  -3.428563  0.760361 -1.608496
      ESP Fit Center  335 is at  -3.487564  0.350000 -1.608496
      ESP Fit Center  336 is at  -3.428563 -0.060361 -1.608496
      ESP Fit Center  337 is at  -3.256339 -0.437478 -1.608496
      ESP Fit Center  338 is at  -2.984846 -0.750798 -1.608496
      ESP Fit Center  339 is at  -2.636078 -0.974937 -1.608496
      ESP Fit Center  340 is at  -2.238291 -1.091738 -1.608496
      ESP Fit Center  341 is at  -0.878941  0.350000 -1.882673
      ESP Fit Center  342 is at  -0.956737  0.766172 -1.882673
      ESP Fit Center  343 is at  -1.179618  1.126137 -1.882673
      ESP Fit Center  344 is at  -1.517483  1.381281 -1.882673
      ESP Fit Center  345 is at  -1.924701  1.497145 -1.882673
      ESP Fit Center  346 is at  -2.346276  1.458080 -1.882673
      ESP Fit Center  347 is at  -2.725271  1.269363 -1.882673
      ESP Fit Center  348 is at  -3.010500  0.956481 -1.882673
      ESP Fit Center  349 is at  -3.163443  0.561690 -1.882673
      ESP Fit Center  350 is at  -3.163443  0.138310 -1.882673
      ESP Fit Center  351 is at  -3.010500 -0.256481 -1.882673
      ESP Fit Center  352 is at  -2.725271 -0.569363 -1.882673
      ESP Fit Center  353 is at  -2.346276 -0.758080 -1.882673
      ESP Fit Center  354 is at  -1.924701 -0.797145 -1.882673
      ESP Fit Center  355 is at  -1.179618 -0.426137 -1.882673
      ESP Fit Center  356 is at  -0.956737 -0.066172 -1.882673
      ESP Fit Center  357 is at  -1.233796  0.350000 -2.087549
      ESP Fit Center  358 is at  -1.340601  0.748602 -2.087549
      ESP Fit Center  359 is at  -1.632398  1.040399 -2.087549
      ESP Fit Center  360 is at  -2.031000  1.147204 -2.087549
      ESP Fit Center  361 is at  -2.429602  1.040399 -2.087549
      ESP Fit Center  362 is at  -2.721399  0.748602 -2.087549
      ESP Fit Center  363 is at  -2.828204  0.350000 -2.087549
      ESP Fit Center  364 is at  -2.721399 -0.048602 -2.087549
      ESP Fit Center  365 is at  -2.429602 -0.340399 -2.087549
      ESP Fit Center  366 is at  -2.031000 -0.447204 -2.087549
      ESP Fit Center  367 is at  -1.632398 -0.340399 -2.087549
      ESP Fit Center  368 is at  -1.340601 -0.048602 -2.087549
      ESP Fit Center  369 is at  -1.623493  0.350000 -2.214169
      ESP Fit Center  370 is at  -1.827247  0.702911 -2.214169
      ESP Fit Center  371 is at  -2.234753  0.702911 -2.214169
      ESP Fit Center  372 is at  -2.438507  0.350000 -2.214169
      ESP Fit Center  373 is at  -2.234753 -0.002911 -2.214169
      ESP Fit Center  374 is at  -1.827247 -0.002911 -2.214169
      ESP Fit Center  375 is at  -2.031000  0.350000 -2.257000
      ESP Fit Center  376 is at   0.489507  2.537000  4.852169
      ESP Fit Center  377 is at   0.285753  2.889911  4.852169
      ESP Fit Center  378 is at  -0.121753  2.889911  4.852169
      ESP Fit Center  379 is at   0.879204  2.537000  4.725549
      ESP Fit Center  380 is at   0.772399  2.935602  4.725549
      ESP Fit Center  381 is at   0.480602  3.227399  4.725549
      ESP Fit Center  382 is at   0.082000  3.334204  4.725549
      ESP Fit Center  383 is at  -0.316602  3.227399  4.725549
      ESP Fit Center  384 is at  -0.608399  2.935602  4.725549
      ESP Fit Center  385 is at   1.234059  2.537000  4.520673
      ESP Fit Center  386 is at   1.156263  2.953172  4.520673
      ESP Fit Center  387 is at   0.933382  3.313137  4.520673
      ESP Fit Center  388 is at   0.595517  3.568281  4.520673
      ESP Fit Center  389 is at   0.188299  3.684145  4.520673
      ESP Fit Center  390 is at  -0.233276  3.645080  4.520673
      ESP Fit Center  391 is at  -0.612271  3.456363  4.520673
      ESP Fit Center  392 is at  -0.897500  3.143481  4.520673
      ESP Fit Center  393 is at   1.156263  2.120828  4.520673
      ESP Fit Center  394 is at   1.538564  2.537000  4.246496
      ESP Fit Center  395 is at   1.479563  2.947361  4.246496
      ESP Fit Center  396 is at   1.307339  3.324478  4.246496
      ESP Fit Center  397 is at   1.035846  3.637798  4.246496
      ESP Fit Center  398 is at   0.687078  3.861937  4.246496
      ESP Fit Center  399 is at   0.289291  3.978738  4.246496
      ESP Fit Center  400 is at  -0.125291  3.978738  4.246496
      ESP Fit Center  401 is at  -0.523078  3.861937  4.246496
      ESP Fit Center  402 is at  -0.871846  3.637798  4.246496
      ESP Fit Center  403 is at   1.479563  2.126639  4.246496
      ESP Fit Center  404 is at   1.779410  2.537000  3.915000
      ESP Fit Center  405 is at   1.726083  2.959129  3.915000
      ESP Fit Center  406 is at   1.569452  3.354733  3.915000
      ESP Fit Center  407 is at   1.319358  3.698957  3.915000
      ESP Fit Center  408 is at   0.991518  3.970170  3.915000
      ESP Fit Center  409 is at   0.606528  4.151333  3.915000
      ESP Fit Center  410 is at   0.188581  4.231060  3.915000
      ESP Fit Center  411 is at  -0.236063  4.204344  3.915000
      ESP Fit Center  412 is at  -0.640722  4.072862  3.915000
      ESP Fit Center  413 is at  -0.999970  3.844877  3.915000
      ESP Fit Center  414 is at  -1.291233  3.534712  3.915000
      ESP Fit Center  415 is at   1.726083  2.114871  3.915000
      ESP Fit Center  416 is at   1.946071  2.537000  3.540673
      ESP Fit Center  417 is at   1.899335  2.951795  3.540673
      ESP Fit Center  418 is at   1.761470  3.345790  3.540673
      ESP Fit Center  419 is at   1.539389  3.699229  3.540673
      ESP Fit Center  420 is at   1.244229  3.994389  3.540673
      ESP Fit Center  421 is at   0.890790  4.216470  3.540673
      ESP Fit Center  422 is at   0.496795  4.354335  3.540673
      ESP Fit Center  423 is at   0.082000  4.401071  3.540673
      ESP Fit Center  424 is at  -0.332795  4.354335  3.540673
      ESP Fit Center  425 is at  -0.726790  4.216470  3.540673
      ESP Fit Center  426 is at  -1.080229  3.994389  3.540673
      ESP Fit Center  427 is at  -1.375389  3.699229  3.540673
      ESP Fit Center  428 is at   1.761470  1.728210  3.540673
      ESP Fit Center  429 is at   1.899335  2.122205  3.540673
      ESP Fit Center  430 is at   2.031263  2.537000  3.139876
      ESP Fit Center  431 is at   1.985690  2.956034  3.139876
      ESP Fit Center  432 is at   1.851103  3.355474  3.139876
      ESP Fit Center  433 is at   1.633795  3.716644  3.139876
      ESP Fit Center  434 is at   1.343926  4.022654  3.139876
      ESP Fit Center  435 is at   0.995051  4.259197  3.139876
      ESP Fit Center  436 is at   0.603483  4.415212  3.139876
      ESP Fit Center  437 is at   0.187531  4.483404  3.139876
      ESP Fit Center  438 is at  -0.233356  4.460584  3.139876
      ESP Fit Center  439 is at  -0.639497  4.347820  3.139876
      ESP Fit Center  440 is at  -1.011901  4.150383  3.139876
      ESP Fit Center  441 is at  -1.333156  3.877507  3.139876
      ESP Fit Center  442 is at   1.851103  1.718526  3.139876
      ESP Fit Center  443 is at   1.985690  2.117966  3.139876
      ESP Fit Center  444 is at   2.031263  2.537000  2.730124
      ESP Fit Center  445 is at   1.985690  2.956034  2.730124
      ESP Fit Center  446 is at   1.851103  3.355474  2.730124
      ESP Fit Center  447 is at   1.633795  3.716644  2.730124
      ESP Fit Center  448 is at   1.343926  4.022654  2.730124
      ESP Fit Center  449 is at   0.995051  4.259197  2.730124
      ESP Fit Center  450 is at   0.603483  4.415212  2.730124
      ESP Fit Center  451 is at   0.187531  4.483404  2.730124
      ESP Fit Center  452 is at  -0.233356  4.460584  2.730124
      ESP Fit Center  453 is at  -0.639497  4.347820  2.730124
      ESP Fit Center  454 is at  -1.011901  4.150383  2.730124
      ESP Fit Center  455 is at  -1.333156  3.877507  2.730124
      ESP Fit Center  456 is at   1.851103  1.718526  2.730124
      ESP Fit Center  457 is at   1.985690  2.117966  2.730124
      ESP Fit Center  458 is at   1.946071  2.537000  2.329327
      ESP Fit Center  459 is at   1.899335  2.951795  2.329327
      ESP Fit Center  460 is at   1.761470  3.345790  2.329327
      ESP Fit Center  461 is at   1.539389  3.699229  2.329327
      ESP Fit Center  462 is at   1.244229  3.994389  2.329327
      ESP Fit Center  463 is at   0.890790  4.216470  2.329327
      ESP Fit Center  464 is at   0.496795  4.354335  2.329327
      ESP Fit Center  465 is at   0.082000  4.401071  2.329327
      ESP Fit Center  466 is at  -0.332795  4.354335  2.329327
      ESP Fit Center  467 is at  -0.726790  4.216470  2.329327
      ESP Fit Center  468 is at  -1.080229  3.994389  2.329327
      ESP Fit Center  469 is at   1.761470  1.728210  2.329327
      ESP Fit Center  470 is at   1.899335  2.122205  2.329327
      ESP Fit Center  471 is at   1.779410  2.537000  1.955000
      ESP Fit Center  472 is at   1.726083  2.959129  1.955000
      ESP Fit Center  473 is at   1.569452  3.354733  1.955000
      ESP Fit Center  474 is at   1.319358  3.698957  1.955000
      ESP Fit Center  475 is at   0.991518  3.970170  1.955000
      ESP Fit Center  476 is at   0.606528  4.151333  1.955000
      ESP Fit Center  477 is at   0.188581  4.231060  1.955000
      ESP Fit Center  478 is at  -0.236063  4.204344  1.955000
      ESP Fit Center  479 is at  -0.640722  4.072862  1.955000
      ESP Fit Center  480 is at  -0.999970  3.844877  1.955000
      ESP Fit Center  481 is at   1.569452  1.719267  1.955000
      ESP Fit Center  482 is at   1.726083  2.114871  1.955000
      ESP Fit Center  483 is at   1.538564  2.537000  1.623504
      ESP Fit Center  484 is at   1.479563  2.947361  1.623504
      ESP Fit Center  485 is at   1.307339  3.324478  1.623504
      ESP Fit Center  486 is at   1.035846  3.637798  1.623504
      ESP Fit Center  487 is at   0.687078  3.861937  1.623504
      ESP Fit Center  488 is at   0.289291  3.978738  1.623504
      ESP Fit Center  489 is at  -0.125291  3.978738  1.623504
      ESP Fit Center  490 is at  -0.523078  3.861937  1.623504
      ESP Fit Center  491 is at  -0.871846  3.637798  1.623504
      ESP Fit Center  492 is at   1.479563  2.126639  1.623504
      ESP Fit Center  493 is at   1.234059  2.537000  1.349327
      ESP Fit Center  494 is at   1.156263  2.953172  1.349327
      ESP Fit Center  495 is at   0.933382  3.313137  1.349327
      ESP Fit Center  496 is at   0.595517  3.568281  1.349327
      ESP Fit Center  497 is at   0.188299  3.684145  1.349327
      ESP Fit Center  498 is at  -0.233276  3.645080  1.349327
      ESP Fit Center  499 is at  -0.612271  3.456363  1.349327
      ESP Fit Center  500 is at   1.156263  2.120828  1.349327
      ESP Fit Center  501 is at   0.879204  2.537000  1.144451
      ESP Fit Center  502 is at   0.772399  2.935602  1.144451
      ESP Fit Center  503 is at   0.480602  3.227399  1.144451
      ESP Fit Center  504 is at   0.082000  3.334204  1.144451
      ESP Fit Center  505 is at  -0.316602  3.227399  1.144451
      ESP Fit Center  506 is at   0.489507  2.537000  1.017831
      ESP Fit Center  507 is at   0.285753  2.889911  1.017831
      ESP Fit Center  508 is at  -2.378753  1.895911  4.882169
      ESP Fit Center  509 is at  -2.582507  1.543000  4.882169
      ESP Fit Center  510 is at  -2.378753  1.190089  4.882169
      ESP Fit Center  511 is at  -2.175000  2.340204  4.755549
      ESP Fit Center  512 is at  -2.573602  2.233399  4.755549
      ESP Fit Center  513 is at  -2.865399  1.941602  4.755549
      ESP Fit Center  514 is at  -2.972204  1.543000  4.755549
      ESP Fit Center  515 is at  -2.865399  1.144398  4.755549
      ESP Fit Center  516 is at  -2.573602  0.852601  4.755549
      ESP Fit Center  517 is at  -2.068701  2.690145  4.550673
      ESP Fit Center  518 is at  -2.490276  2.651080  4.550673
      ESP Fit Center  519 is at  -2.869271  2.462363  4.550673
      ESP Fit Center  520 is at  -3.154500  2.149481  4.550673
      ESP Fit Center  521 is at  -3.307443  1.754690  4.550673
      ESP Fit Center  522 is at  -3.307443  1.331310  4.550673
      ESP Fit Center  523 is at  -3.154500  0.936519  4.550673
      ESP Fit Center  524 is at  -2.869271  0.623637  4.550673
      ESP Fit Center  525 is at  -2.490276  0.434920  4.550673
      ESP Fit Center  526 is at  -1.967709  2.984738  4.276496
      ESP Fit Center  527 is at  -2.382291  2.984738  4.276496
      ESP Fit Center  528 is at  -2.780078  2.867937  4.276496
      ESP Fit Center  529 is at  -3.128846  2.643798  4.276496
      ESP Fit Center  530 is at  -3.400339  2.330478  4.276496
      ESP Fit Center  531 is at  -3.572563  1.953361  4.276496
      ESP Fit Center  532 is at  -3.631564  1.543000  4.276496
      ESP Fit Center  533 is at  -3.572563  1.132639  4.276496
      ESP Fit Center  534 is at  -3.400339  0.755522  4.276496
      ESP Fit Center  535 is at  -3.128846  0.442202  4.276496
      ESP Fit Center  536 is at  -2.780078  0.218063  4.276496
      ESP Fit Center  537 is at  -2.068419  3.237060  3.945000
      ESP Fit Center  538 is at  -2.493063  3.210344  3.945000
      ESP Fit Center  539 is at  -2.897722  3.078862  3.945000
      ESP Fit Center  540 is at  -3.256970  2.850877  3.945000
      ESP Fit Center  541 is at  -3.548233  2.540712  3.945000
      ESP Fit Center  542 is at  -3.753212  2.167858  3.945000
      ESP Fit Center  543 is at  -3.859025  1.755742  3.945000
      ESP Fit Center  544 is at  -3.859025  1.330258  3.945000
      ESP Fit Center  545 is at  -3.753212  0.918142  3.945000
      ESP Fit Center  546 is at  -3.548233  0.545288  3.945000
      ESP Fit Center  547 is at  -3.256970  0.235123  3.945000
      ESP Fit Center  548 is at  -2.897722  0.007138  3.945000
      ESP Fit Center  549 is at  -2.175000  3.407071  3.570673
      ESP Fit Center  550 is at  -2.589795  3.360335  3.570673
      ESP Fit Center  551 is at  -2.983790  3.222470  3.570673
      ESP Fit Center  552 is at  -3.337229  3.000389  3.570673
      ESP Fit Center  553 is at  -3.632389  2.705229  3.570673
      ESP Fit Center  554 is at  -3.854470  2.351790  3.570673
      ESP Fit Center  555 is at  -3.992335  1.957795  3.570673
      ESP Fit Center  556 is at  -4.039071  1.543000  3.570673
      ESP Fit Center  557 is at  -3.992335  1.128205  3.570673
      ESP Fit Center  558 is at  -3.854470  0.734210  3.570673
      ESP Fit Center  559 is at  -3.632389  0.380771  3.570673
      ESP Fit Center  560 is at  -3.337229  0.085611  3.570673
      ESP Fit Center  561 is at  -2.983790 -0.136470  3.570673
      ESP Fit Center  562 is at  -2.069469  3.489404  3.169876
      ESP Fit Center  563 is at  -2.490356  3.466584  3.169876
      ESP Fit Center  564 is at  -2.896497  3.353820  3.169876
      ESP Fit Center  565 is at  -3.268901  3.156383  3.169876
      ESP Fit Center  566 is at  -3.590156  2.883507  3.169876
      ESP Fit Center  567 is at  -3.845240  2.547950  3.169876
      ESP Fit Center  568 is at  -4.022225  2.165403  3.169876
      ESP Fit Center  569 is at  -4.112836  1.753752  3.169876
      ESP Fit Center  570 is at  -4.112836  1.332248  3.169876
      ESP Fit Center  571 is at  -4.022225  0.920597  3.169876
      ESP Fit Center  572 is at  -3.845240  0.538050  3.169876
      ESP Fit Center  573 is at  -3.590156  0.202493  3.169876
      ESP Fit Center  574 is at  -3.268901 -0.070383  3.169876
      ESP Fit Center  575 is at  -2.896497 -0.267820  3.169876
      ESP Fit Center  576 is at  -2.490356 -0.380584  3.169876
      ESP Fit Center  577 is at  -2.069469  3.489404  2.760124
      ESP Fit Center  578 is at  -2.490356  3.466584  2.760124
      ESP Fit Center  579 is at  -2.896497  3.353820  2.760124
      ESP Fit Center  580 is at  -3.268901  3.156383  2.760124
      ESP Fit Center  581 is at  -3.590156  2.883507  2.760124
      ESP Fit Center  582 is at  -3.845240  2.547950  2.760124
      ESP Fit Center  583 is at  -4.022225  2.165403  2.760124
      ESP Fit Center  584 is at  -4.112836  1.753752  2.760124
      ESP Fit Center  585 is at  -4.112836  1.332248  2.760124
      ESP Fit Center  586 is at  -4.022225  0.920597  2.760124
      ESP Fit Center  587 is at  -3.845240  0.538050  2.760124
      ESP Fit Center  588 is at  -3.590156  0.202493  2.760124
      ESP Fit Center  589 is at  -3.268901 -0.070383  2.760124
      ESP Fit Center  590 is at  -2.896497 -0.267820  2.760124
      ESP Fit Center  591 is at  -2.175000  3.407071  2.359327
      ESP Fit Center  592 is at  -2.589795  3.360335  2.359327
      ESP Fit Center  593 is at  -2.983790  3.222470  2.359327
      ESP Fit Center  594 is at  -3.337229  3.000389  2.359327
      ESP Fit Center  595 is at  -3.632389  2.705229  2.359327
      ESP Fit Center  596 is at  -3.854470  2.351790  2.359327
      ESP Fit Center  597 is at  -3.992335  1.957795  2.359327
      ESP Fit Center  598 is at  -4.039071  1.543000  2.359327
      ESP Fit Center  599 is at  -3.992335  1.128205  2.359327
      ESP Fit Center  600 is at  -3.854470  0.734210  2.359327
      ESP Fit Center  601 is at  -3.632389  0.380771  2.359327
      ESP Fit Center  602 is at  -3.337229  0.085611  2.359327
      ESP Fit Center  603 is at  -2.493063  3.210344  1.985000
      ESP Fit Center  604 is at  -2.897722  3.078862  1.985000
      ESP Fit Center  605 is at  -3.256970  2.850877  1.985000
      ESP Fit Center  606 is at  -3.548233  2.540712  1.985000
      ESP Fit Center  607 is at  -3.753212  2.167858  1.985000
      ESP Fit Center  608 is at  -3.859025  1.755742  1.985000
      ESP Fit Center  609 is at  -3.859025  1.330258  1.985000
      ESP Fit Center  610 is at  -3.753212  0.918142  1.985000
      ESP Fit Center  611 is at  -3.548233  0.545288  1.985000
      ESP Fit Center  612 is at  -2.382291  2.984738  1.653504
      ESP Fit Center  613 is at  -2.780078  2.867937  1.653504
      ESP Fit Center  614 is at  -3.128846  2.643798  1.653504
      ESP Fit Center  615 is at  -3.400339  2.330478  1.653504
      ESP Fit Center  616 is at  -3.572563  1.953361  1.653504
      ESP Fit Center  617 is at  -3.631564  1.543000  1.653504
      ESP Fit Center  618 is at  -3.572563  1.132639  1.653504
      ESP Fit Center  619 is at  -3.400339  0.755522  1.653504
      ESP Fit Center  620 is at  -2.490276  2.651080  1.379327
      ESP Fit Center  621 is at  -2.869271  2.462363  1.379327
      ESP Fit Center  622 is at  -3.154500  2.149481  1.379327
      ESP Fit Center  623 is at  -3.307443  1.754690  1.379327
      ESP Fit Center  624 is at  -3.307443  1.331310  1.379327
      ESP Fit Center  625 is at  -2.573602  2.233399  1.174451
      ESP Fit Center  626 is at  -2.865399  1.941602  1.174451
      ESP Fit Center  627 is at  -2.972204  1.543000  1.174451
      ESP Fit Center  628 is at   1.313964 -2.387869 -1.411697
      ESP Fit Center  629 is at   1.553083 -2.041447 -1.411697
      ESP Fit Center  630 is at   0.259042 -0.688385  5.969086
      ESP Fit Center  631 is at   0.601200 -0.429999  5.969086
      ESP Fit Center  632 is at   0.355860 -0.994735  5.707924
      ESP Fit Center  633 is at  -1.162198 -3.090521  0.396662
      ESP Fit Center  634 is at  -0.777626 -3.230493  0.396662
      ESP Fit Center  635 is at  -1.816088 -2.868884  0.097396
      ESP Fit Center  636 is at  -1.540662 -3.186742  0.097396
      ESP Fit Center  637 is at  -1.186843 -3.414128  0.097396
      ESP Fit Center  638 is at  -0.783293 -3.532621  0.097396
      ESP Fit Center  639 is at  -0.362707 -3.532621  0.097396
      ESP Fit Center  640 is at  -2.226350 -2.477514 -0.260960
      ESP Fit Center  641 is at  -2.080782 -2.861345 -0.260960
      ESP Fit Center  642 is at  -1.847587 -3.199186 -0.260960
      ESP Fit Center  643 is at  -1.540318 -3.471403 -0.260960
      ESP Fit Center  644 is at  -1.176832 -3.662175 -0.260960
      ESP Fit Center  645 is at  -0.778254 -3.760416 -0.260960
      ESP Fit Center  646 is at  -0.367746 -3.760416 -0.260960
      ESP Fit Center  647 is at   0.030832 -3.662175 -0.260960
      ESP Fit Center  648 is at  -2.369416 -2.480020 -0.660435
      ESP Fit Center  649 is at  -2.233138 -2.869480 -0.660435
      ESP Fit Center  650 is at  -2.013613 -3.218851 -0.660435
      ESP Fit Center  651 is at  -1.721851 -3.510613 -0.660435
      ESP Fit Center  652 is at  -1.372480 -3.730138 -0.660435
      ESP Fit Center  653 is at  -0.983020 -3.866416 -0.660435
      ESP Fit Center  654 is at  -0.573000 -3.912614 -0.660435
      ESP Fit Center  655 is at  -0.162980 -3.866416 -0.660435
      ESP Fit Center  656 is at   0.226480 -3.730138 -0.660435
      ESP Fit Center  657 is at   0.575851 -3.510613 -0.660435
      ESP Fit Center  658 is at  -2.451921 -1.865655 -1.081000
      ESP Fit Center  659 is at  -2.451921 -2.274345 -1.081000
      ESP Fit Center  660 is at  -2.364064 -2.673480 -1.081000
      ESP Fit Center  661 is at  -2.192460 -3.044397 -1.081000
      ESP Fit Center  662 is at  -1.945131 -3.369752 -1.081000
      ESP Fit Center  663 is at  -1.633644 -3.634332 -1.081000
      ESP Fit Center  664 is at  -1.272561 -3.825766 -1.081000
      ESP Fit Center  665 is at  -0.878768 -3.935102 -1.081000
      ESP Fit Center  666 is at  -0.470677 -3.957228 -1.081000
      ESP Fit Center  667 is at  -0.067371 -3.891109 -1.081000
      ESP Fit Center  668 is at   0.312292 -3.739838 -1.081000
      ESP Fit Center  669 is at   0.650560 -3.510486 -1.081000
      ESP Fit Center  670 is at   0.931616 -3.213779 -1.081000
      ESP Fit Center  671 is at   1.142318 -2.863590 -1.081000
      ESP Fit Center  672 is at  -2.233138 -1.270520 -1.501565
      ESP Fit Center  673 is at  -2.369416 -1.659980 -1.501565
      ESP Fit Center  674 is at  -2.415614 -2.070000 -1.501565
      ESP Fit Center  675 is at  -2.369416 -2.480020 -1.501565
      ESP Fit Center  676 is at  -2.233138 -2.869480 -1.501565
      ESP Fit Center  677 is at  -2.013613 -3.218851 -1.501565
      ESP Fit Center  678 is at  -1.721851 -3.510613 -1.501565
      ESP Fit Center  679 is at  -1.372480 -3.730138 -1.501565
      ESP Fit Center  680 is at  -0.983020 -3.866416 -1.501565
      ESP Fit Center  681 is at  -0.573000 -3.912614 -1.501565
      ESP Fit Center  682 is at  -0.162980 -3.866416 -1.501565
      ESP Fit Center  683 is at   0.226480 -3.730138 -1.501565
      ESP Fit Center  684 is at   0.575851 -3.510613 -1.501565
      ESP Fit Center  685 is at   0.867613 -3.218851 -1.501565
      ESP Fit Center  686 is at   1.087138 -2.869480 -1.501565
      ESP Fit Center  687 is at   1.223416 -2.480020 -1.501565
      ESP Fit Center  688 is at   1.129831 -2.070000 -1.901040
      ESP Fit Center  689 is at  -1.176832 -0.477825 -1.901040
[...]
 5639 Fit      -0.083618
 5640 Fit      -0.083746
 5641 Fit      -0.084180
 5642 Fit      -0.084852
 5643 Fit      -0.085367
 5644 Fit      -0.086512
 5645 Fit      -0.087987
 5646 Fit      -0.089815
 5647 Fit      -0.092008
 5648 Fit      -0.094559
 5649 Fit      -0.097451
 5650 Fit      -0.100665
 5651 Fit      -0.104178
 5652 Fit      -0.107913
 5653 Fit      -0.111625
 5654 Fit      -0.114763
 5655 Fit      -0.085316
 5656 Fit      -0.084181
 5657 Fit      -0.083836
 5658 Fit      -0.084002
 5659 Fit      -0.084530
 5660 Fit      -0.085457
 5661 Fit      -0.086573
 5662 Fit      -0.088076
 5663 Fit      -0.089975
 5664 Fit      -0.092256
 5665 Fit      -0.094880
 5666 Fit      -0.097780
 5667 Fit      -0.100838
 5668 Fit      -0.103839
 5669 Fit      -0.106389
 5670 Fit      -0.107934
 5671 Fit      -0.108029
 5672 Fit      -0.085485
 5673 Fit      -0.084595
 5674 Fit      -0.084406
 5675 Fit      -0.084726
 5676 Fit      -0.086018
 5677 Fit      -0.087240
 5678 Fit      -0.089018
 5679 Fit      -0.091296
 5680 Fit      -0.093961
 5681 Fit      -0.096797
 5682 Fit      -0.099442
 5683 Fit      -0.101354
 5684 Fit      -0.101983
 5685 Fit      -0.101211
 5686 Fit      -0.088299
 5687 Fit      -0.086354
 5688 Fit      -0.085444
 5689 Fit      -0.085390
 5690 Fit      -0.087059
 5691 Fit      -0.088492
 5692 Fit      -0.090735
 5693 Fit      -0.093413
 5694 Fit      -0.095865
 5695 Fit      -0.097201
 5696 Fit      -0.096850
 5697 Fit      -0.095063
 5698 Fit      -0.092406
 5699 Fit      -0.089558
 5700 Fit      -0.087467
 5701 Fit      -0.086652
 5702 Fit      -0.088604
 5703 Fit      -0.090536
 5704 Fit      -0.092987
 5705 Fit      -0.093406
 5706 Fit      -0.091271
 5707 Fit      -0.088887
 5708 Fit      -0.090696
 5709 Fit      -0.112062
 5710 Fit      -0.108955
 5711 Fit      -0.109411
 5712 Fit      -0.117605
 5713 Fit      -0.110661
 5714 Fit      -0.106151
 5715 Fit      -0.103877
 5716 Fit      -0.103710
 5717 Fit      -0.105633
 5718 Fit      -0.106014
 5719 Fit      -0.116423
 5720 Fit      -0.109420
 5721 Fit      -0.104485
 5722 Fit      -0.101246
 5723 Fit      -0.099476
 5724 Fit      -0.099065
 5725 Fit      -0.099987
 5726 Fit      -0.102273
 5727 Fit      -0.102582
 5728 Fit      -0.107394
 5729 Fit      -0.112257
 5730 Fit      -0.105825
 5731 Fit      -0.101247
 5732 Fit      -0.098105
 5733 Fit      -0.096169
 5734 Fit      -0.095320
 5735 Fit      -0.095515
 5736 Fit      -0.096754
 5737 Fit      -0.099082
 5738 Fit      -0.099545
 5739 Fit      -0.103642
 5740 Fit      -0.108895
 5741 Fit      -0.115547
 5742 Fit      -0.113061
 5743 Fit      -0.106258
 5744 Fit      -0.101272
 5745 Fit      -0.097611
 5746 Fit      -0.094996
 5747 Fit      -0.093270
 5748 Fit      -0.092352
 5749 Fit      -0.092206
 5750 Fit      -0.092825
 5751 Fit      -0.094224
 5752 Fit      -0.096441
 5753 Fit      -0.096931
 5754 Fit      -0.100629
 5755 Fit      -0.105312
 5756 Fit      -0.111206
 5757 Fit      -0.118669
 5758 Fit      -0.110867
 5759 Fit      -0.104399
 5760 Fit      -0.099601
 5761 Fit      -0.096001
 5762 Fit      -0.093331
 5763 Fit      -0.091441
 5764 Fit      -0.090248
 5765 Fit      -0.089711
 5766 Fit      -0.089816
 5767 Fit      -0.090565
 5768 Fit      -0.091974
 5769 Fit      -0.094077
 5770 Fit      -0.094725
 5771 Fit      -0.098116
 5772 Fit      -0.102373
 5773 Fit      -0.107691
 5774 Fit      -0.114386
 5775 Fit      -0.110926
 5776 Fit      -0.104273
 5777 Fit      -0.099307
 5778 Fit      -0.095523
 5779 Fit      -0.092637
 5780 Fit      -0.090487
 5781 Fit      -0.088979
 5782 Fit      -0.088064
 5783 Fit      -0.087718
 5784 Fit      -0.087936
 5785 Fit      -0.088722
 5786 Fit      -0.090092
 5787 Fit      -0.092077
 5788 Fit      -0.092895
 5789 Fit      -0.095971
 5790 Fit      -0.099795
 5791 Fit      -0.104519
 5792 Fit      -0.110378
 5793 Fit      -0.117740
 5794 Fit      -0.110659
 5795 Fit      -0.104150
 5796 Fit      -0.099197
 5797 Fit      -0.095351
 5798 Fit      -0.092346
 5799 Fit      -0.090026
 5800 Fit      -0.088295
 5801 Fit      -0.087099
 5802 Fit      -0.086411
 5803 Fit      -0.086216
 5804 Fit      -0.086513
 5805 Fit      -0.087308
 5806 Fit      -0.088617
 5807 Fit      -0.090465
 5808 Fit      -0.091405
 5809 Fit      -0.094262
 5810 Fit      -0.097801
 5811 Fit      -0.102149
 5812 Fit      -0.107488
 5813 Fit      -0.100690
 5814 Fit      -0.096482
 5815 Fit      -0.093137
 5816 Fit      -0.090490
 5817 Fit      -0.088432
 5818 Fit      -0.086896
 5819 Fit      -0.085843
 5820 Fit      -0.085249
 5821 Fit      -0.085107
 5822 Fit      -0.085414
 5823 Fit      -0.086177
 5824 Fit      -0.087412
 5825 Fit      -0.089141
 5826 Fit      -0.090223
 5827 Fit      -0.093032
 5828 Fit      -0.096549
 5829 Fit      -0.096604
 5830 Fit      -0.093047
 5831 Fit      -0.090225
 5832 Fit      -0.088026
 5833 Fit      -0.086373
 5834 Fit      -0.085219
 5835 Fit      -0.084535
 5836 Fit      -0.084306
 5837 Fit      -0.084530
 5838 Fit      -0.085213
 5839 Fit      -0.086368
 5840 Fit      -0.088023
 5841 Fit      -0.089326
 5842 Fit      -0.092204
 5843 Fit      -0.091175
 5844 Fit      -0.088525
 5845 Fit      -0.086530
 5846 Fit      -0.085108
 5847 Fit      -0.084210
 5848 Fit      -0.083807
 5849 Fit      -0.083888
 5850 Fit      -0.084455
 5851 Fit      -0.085524
 5852 Fit      -0.087129
 5853 Fit      -0.088705
 5854 Fit      -0.087219
 5855 Fit      -0.085417
 5856 Fit      -0.084233
 5857 Fit      -0.083610
 5858 Fit      -0.083517
 5859 Fit      -0.083949
 5860 Fit      -0.084923
 5861 Fit      -0.086483
 5862 Fit      -0.088365
 5863 Fit      -0.086696
 5864 Fit      -0.084906
 5865 Fit      -0.083847
 5866 Fit      -0.083439
 5867 Fit      -0.083653
 5868 Fit      -0.084497
 5869 Fit      -0.086030
 5870 Fit      -0.085198
 5871 Fit      -0.083975
 5872 Fit      -0.083663
 5873 Fit      -0.084223
 5874 Fit      -0.085714
 5875 Fit      -0.087935
 5876 Fit      -0.090099
 5877 Fit      -0.087240
 5878 Fit      -0.086565
 5879 Fit      -0.086782
 5880 Fit      -0.087319
 5881 Fit      -0.089027
 5882 Fit      -0.091407
 5883 Fit      -0.086338
 5884 Fit      -0.085839
 5885 Fit      -0.085789
 5886 Fit      -0.086257
 5887 Fit      -0.087110
 5888 Fit      -0.088577
 5889 Fit      -0.090543
 5890 Fit      -0.093012
 5891 Fit      -0.087202
 5892 Fit      -0.086341
 5893 Fit      -0.085774
 5894 Fit      -0.085518
 5895 Fit      -0.085618
 5896 Fit      -0.086132
 5897 Fit      -0.087241
 5898 Fit      -0.088683
 5899 Fit      -0.090602
 5900 Fit      -0.092994
 5901 Fit      -0.095855
 5902 Fit      -0.088480
 5903 Fit      -0.087296
 5904 Fit      -0.086436
 5905 Fit      -0.085875
 5906 Fit      -0.085631
 5907 Fit      -0.085746
 5908 Fit      -0.086270
 5909 Fit      -0.087699
 5910 Fit      -0.089078
 5911 Fit      -0.090899
 5912 Fit      -0.093166
 5913 Fit      -0.095877
 5914 Fit      -0.099025
 5915 Fit      -0.102601
 5916 Fit      -0.090012
 5917 Fit      -0.088580
 5918 Fit      -0.087504
 5919 Fit      -0.086726
 5920 Fit      -0.086234
 5921 Fit      -0.086051
 5922 Fit      -0.086210
 5923 Fit      -0.086750
 5924 Fit      -0.088504
 5925 Fit      -0.089928
 5926 Fit      -0.091817
 5927 Fit      -0.094191
 5928 Fit      -0.097069
 5929 Fit      -0.100472
 5930 Fit      -0.104402
 5931 Fit      -0.108820
 5932 Fit      -0.092932
 5933 Fit      -0.090953
 5934 Fit      -0.089462
 5935 Fit      -0.088332
 5936 Fit      -0.087512
 5937 Fit      -0.086996
 5938 Fit      -0.086804
 5939 Fit      -0.086970
 5940 Fit      -0.087527
 5941 Fit      -0.089700
 5942 Fit      -0.091204
 5943 Fit      -0.093219
 5944 Fit      -0.095784
 5945 Fit      -0.098953
 5946 Fit      -0.102796
 5947 Fit      -0.107391
 5948 Fit      -0.112788
 5949 Fit      -0.094539
 5950 Fit      -0.092437
 5951 Fit      -0.090834
 5952 Fit      -0.089610
 5953 Fit      -0.088716
 5954 Fit      -0.088150
 5955 Fit      -0.087933
 5956 Fit      -0.088097
 5957 Fit      -0.088675
 5958 Fit      -0.091341
 5959 Fit      -0.092910
 5960 Fit      -0.095027
 5961 Fit      -0.097753
 5962 Fit      -0.101179
 5963 Fit      -0.105437
 5964 Fit      -0.110713
 5965 Fit      -0.096304
 5966 Fit      -0.094174
 5967 Fit      -0.092521
 5968 Fit      -0.091246
 5969 Fit      -0.090313
 5970 Fit      -0.089723
 5971 Fit      -0.089500
 5972 Fit      -0.089672
 5973 Fit      -0.090274
 5974 Fit      -0.093489
 5975 Fit      -0.095151
 5976 Fit      -0.097417
 5977 Fit      -0.100374
 5978 Fit      -0.104159
 5979 Fit      -0.108984
 5980 Fit      -0.115177
 5981 Fit      -0.101841
 5982 Fit      -0.098915
 5983 Fit      -0.096654
 5984 Fit      -0.094878
 5985 Fit      -0.093497
 5986 Fit      -0.092481
 5987 Fit      -0.091835
 5988 Fit      -0.091579
 5989 Fit      -0.091745
 5990 Fit      -0.092369
 5991 Fit      -0.096214
 5992 Fit      -0.098050
 5993 Fit      -0.100603
 5994 Fit      -0.104010
 5995 Fit      -0.108486
 5996 Fit      -0.114394
 5997 Fit      -0.103193
 5998 Fit      -0.100493
 5999 Fit      -0.098363
 6000 Fit      -0.096697
 6001 Fit      -0.095454
 6002 Fit      -0.094635
 6003 Fit      -0.094264
 6004 Fit      -0.094376
 6005 Fit      -0.095010
 6006 Fit      -0.099597
 6007 Fit      -0.101654
 6008 Fit      -0.104592
 6009 Fit      -0.108612
 6010 Fit      -0.114062
 6011 Fit      -0.109090
 6012 Fit      -0.105721
 6013 Fit      -0.103050
 6014 Fit      -0.100939
 6015 Fit      -0.099335
 6016 Fit      -0.098238
 6017 Fit      -0.097671
 6018 Fit      -0.097676
 6019 Fit      -0.098298
 6020 Fit      -0.103740
 6021 Fit      -0.106010
 6022 Fit      -0.109332
 6023 Fit      -0.113981
 6024 Fit      -0.120450
 6025 Fit      -0.106254
 6026 Fit      -0.104202
 6027 Fit      -0.102748
 6028 Fit      -0.101926
 6029 Fit      -0.101780
 6030 Fit      -0.102363
 6031 Fit      -0.108785
 6032 Fit      -0.111343
 6033 Fit      -0.115197
 6034 Fit      -0.120717
 6035 Fit      -0.108560
 6036 Fit      -0.107273
 6037 Fit      -0.106843
 6038 Fit      -0.107324
 6039 Fit      -0.114950
 6040 Fit      -0.118067
 6041 Fit      -0.122986
 6042 Fit      -0.113160
 6043 Fit      -0.113359
 6044 Fit      -0.122606
 6045 Fit      -0.120893
 6046 Fit      -0.091274
 6047 Fit      -0.092759
 6048 Fit      -0.090832
 6049 Fit      -0.089412
 6050 Fit      -0.088618
 6051 Fit      -0.096765
 6052 Fit      -0.094578
 6053 Fit      -0.092697
 6054 Fit      -0.091085
 6055 Fit      -0.089756
 6056 Fit      -0.088734
 6057 Fit      -0.088057
 6058 Fit      -0.087813
 6059 Fit      -0.098829
 6060 Fit      -0.096800
 6061 Fit      -0.094982
 6062 Fit      -0.093347
 6063 Fit      -0.091898
 6064 Fit      -0.090653
 6065 Fit      -0.089621
 6066 Fit      -0.088813
 6067 Fit      -0.088245
 6068 Fit      -0.087962
 6069 Fit      -0.088047
 6070 Fit      -0.103848
 6071 Fit      -0.101517
 6072 Fit      -0.099431
 6073 Fit      -0.097527
 6074 Fit      -0.095783
 6075 Fit      -0.094201
 6076 Fit      -0.092796
 6077 Fit      -0.091583
 6078 Fit      -0.090571
 6079 Fit      -0.089770
 6080 Fit      -0.089192
 6081 Fit      -0.088877
 6082 Fit      -0.088904
 6083 Fit      -0.108603
 6084 Fit      -0.106125
 6085 Fit      -0.103886
 6086 Fit      -0.101843
 6087 Fit      -0.099962
 6088 Fit      -0.098223
 6089 Fit      -0.096623
 6090 Fit      -0.095170
 6091 Fit      -0.093879
 6092 Fit      -0.092763
 6093 Fit      -0.091832
 6094 Fit      -0.091096
 6095 Fit      -0.090574
 6096 Fit      -0.090307
 6097 Fit      -0.090381
 6098 Fit      -0.115060
 6099 Fit      -0.112040
 6100 Fit      -0.109355
 6101 Fit      -0.106973
 6102 Fit      -0.104829
 6103 Fit      -0.102863
 6104 Fit      -0.101039
 6105 Fit      -0.099344
 6106 Fit      -0.097784
 6107 Fit      -0.096378
 6108 Fit      -0.095142
 6109 Fit      -0.094094
 6110 Fit      -0.093249
 6111 Fit      -0.092625
 6112 Fit      -0.092260
 6113 Fit      -0.092234
 6114 Fit      -0.092695
 6115 Fit      -0.121935
 6116 Fit      -0.118041
 6117 Fit      -0.114784
 6118 Fit      -0.112039
 6119 Fit      -0.109653
 6120 Fit      -0.107496
 6121 Fit      -0.105489
 6122 Fit      -0.103597
 6123 Fit      -0.101817
 6124 Fit      -0.100169
 6125 Fit      -0.098681
 6126 Fit      -0.097380
 6127 Fit      -0.096290
 6128 Fit      -0.095435
 6129 Fit      -0.094848
 6130 Fit      -0.094586
 6131 Fit      -0.094768
 6132 Fit      -0.125352
 6133 Fit      -0.121403
 6134 Fit      -0.118289
 6135 Fit      -0.115692
 6136 Fit      -0.113380
 6137 Fit      -0.111213
 6138 Fit      -0.109125
 6139 Fit      -0.107105
 6140 Fit      -0.105175
 6141 Fit      -0.103372
 6142 Fit      -0.101740
 6143 Fit      -0.100319
 6144 Fit      -0.099144
 6145 Fit      -0.098248
 6146 Fit      -0.097675
 6147 Fit      -0.097503
 6148 Fit      -0.097879
 6149 Fit      -0.131531
 6150 Fit      -0.127514
 6151 Fit      -0.124468
 6152 Fit      -0.121912
 6153 Fit      -0.119546
 6154 Fit      -0.117219
 6155 Fit      -0.114882
 6156 Fit      -0.112548
 6157 Fit      -0.110267
 6158 Fit      -0.108107
 6159 Fit      -0.106134
 6160 Fit      -0.104410
 6161 Fit      -0.102987
 6162 Fit      -0.101908
 6163 Fit      -0.101225
 6164 Fit      -0.101021
 6165 Fit      -0.101451
 6166 Fit      -0.138852
 6167 Fit      -0.135207
 6168 Fit      -0.132440
 6169 Fit      -0.129918
 6170 Fit      -0.127325
 6171 Fit      -0.124561
 6172 Fit      -0.121647
 6173 Fit      -0.118671
 6174 Fit      -0.115746
 6175 Fit      -0.112998
 6176 Fit      -0.110543
 6177 Fit      -0.108475
 6178 Fit      -0.106863
 6179 Fit      -0.105763
 6180 Fit      -0.105244
 6181 Fit      -0.105436
 6182 Fit      -0.119577
 6183 Fit      -0.116271
 6184 Fit      -0.113611
 6185 Fit      -0.111682
 6186 Fit      -0.110529
 6187 Fit      -0.110219
 6188 Fit      -0.119395
 6189 Fit      -0.084651
 6190 Fit      -0.084387
 6191 Fit      -0.084925
 6192 Fit      -0.085360
 6193 Fit      -0.085345
 6194 Fit      -0.084803
 6195 Fit      -0.084274
 6196 Fit      -0.084541
 6197 Fit      -0.085089
 6198 Fit      -0.085650
 6199 Fit      -0.086123
 6200 Fit      -0.086461
 6201 Fit      -0.086613
 6202 Fit      -0.086495
 6203 Fit      -0.086061
 6204 Fit      -0.085373
 6205 Fit      -0.084641
 6206 Fit      -0.084176
 6207 Fit      -0.084170
 6208 Fit      -0.085112
 6209 Fit      -0.085704
 6210 Fit      -0.086307
 6211 Fit      -0.086863
 6212 Fit      -0.087334
 6213 Fit      -0.087717
 6214 Fit      -0.088020
 6215 Fit      -0.088225
 6216 Fit      -0.088282
 6217 Fit      -0.088134
 6218 Fit      -0.087755
 6219 Fit      -0.087155
 6220 Fit      -0.086375
 6221 Fit      -0.085516
 6222 Fit      -0.084762
 6223 Fit      -0.084324
 6224 Fit      -0.084295
 6225 Fit      -0.084605
 6226 Fit      -0.086126
 6227 Fit      -0.086763
 6228 Fit      -0.087413
 6229 Fit      -0.088044
 6230 Fit      -0.088613
 6231 Fit      -0.089095
 6232 Fit      -0.089489
 6233 Fit      -0.089819
 6234 Fit      -0.090105
 6235 Fit      -0.090340
 6236 Fit      -0.090484
 6237 Fit      -0.090485
 6238 Fit      -0.090309
 6239 Fit      -0.089947
 6240 Fit      -0.089412
 6241 Fit      -0.088713
 6242 Fit      -0.087860
 6243 Fit      -0.086891
 6244 Fit      -0.085921
 6245 Fit      -0.085134
 6246 Fit      -0.084705
 6247 Fit      -0.084693
 6248 Fit      -0.085013
 6249 Fit      -0.085526
 6250 Fit      -0.087643
 6251 Fit      -0.088352
 6252 Fit      -0.089090
 6253 Fit      -0.089839
 6254 Fit      -0.090549
 6255 Fit      -0.091168
 6256 Fit      -0.091667
 6257 Fit      -0.092061
 6258 Fit      -0.092389
 6259 Fit      -0.092694
 6260 Fit      -0.092983
 6261 Fit      -0.093223
 6262 Fit      -0.093354
 6263 Fit      -0.093317
 6264 Fit      -0.093087
 6265 Fit      -0.092677
 6266 Fit      -0.092118
 6267 Fit      -0.091427
 6268 Fit      -0.090590
 6269 Fit      -0.089576
 6270 Fit      -0.088394
 6271 Fit      -0.087157
 6272 Fit      -0.086093
 6273 Fit      -0.085447
 6274 Fit      -0.085334
 6275 Fit      -0.085672
 6276 Fit      -0.086267
 6277 Fit      -0.086948
 6278 Fit      -0.089774
 6279 Fit      -0.090470
 6280 Fit      -0.091231
 6281 Fit      -0.092060
 6282 Fit      -0.092908
 6283 Fit      -0.093700
 6284 Fit      -0.094372
 6285 Fit      -0.094892
 6286 Fit      -0.095276
 6287 Fit      -0.095579
 6288 Fit      -0.095863
 6289 Fit      -0.096168
 6290 Fit      -0.096490
 6291 Fit      -0.096778
 6292 Fit      -0.096955
 6293 Fit      -0.096955
 6294 Fit      -0.096749
 6295 Fit      -0.096353
 6296 Fit      -0.095817
 6297 Fit      -0.095195
 6298 Fit      -0.094511
 6299 Fit      -0.093736
 6300 Fit      -0.092792
 6301 Fit      -0.091601
 6302 Fit      -0.090164
 6303 Fit      -0.088633
 6304 Fit      -0.087307
 6305 Fit      -0.086497
 6306 Fit      -0.086355
 6307 Fit      -0.086786
 6308 Fit      -0.087533
 6309 Fit      -0.088343
 6310 Fit      -0.089088
 6311 Fit      -0.093323
 6312 Fit      -0.094094
 6313 Fit      -0.095035
 6314 Fit      -0.096081
 6315 Fit      -0.097118
 6316 Fit      -0.098029
 6317 Fit      -0.098734
 6318 Fit      -0.099216
 6319 Fit      -0.099525
 6320 Fit      -0.099756
 6321 Fit      -0.100007
 6322 Fit      -0.100341
 6323 Fit      -0.100749
 6324 Fit      -0.101160
 6325 Fit      -0.101461
 6326 Fit      -0.101548
 6327 Fit      -0.101364
 6328 Fit      -0.100924
 6329 Fit      -0.100301
 6330 Fit      -0.099599
 6331 Fit      -0.098910
 6332 Fit      -0.098261
 6333 Fit      -0.097782
 6334 Fit      -0.098849
 6335 Fit      -0.100171
 6336 Fit      -0.101563
 6337 Fit      -0.102825
 6338 Fit      -0.103800
 6339 Fit      -0.104419
 6340 Fit      -0.104721
 6341 Fit      -0.104836
 6342 Fit      -0.104938
 6343 Fit      -0.105179
 6344 Fit      -0.105625
 6345 Fit      -0.106227
 6346 Fit      -0.106841
 6347 Fit      -0.107277
 6348 Fit      -0.107376
 6349 Fit      -0.107071
 6350 Fit      -0.106404
 6351 Fit      -0.105516
 6352 Fit      -0.104594
 6353 Fit      -0.103810
 6354 Fit      -0.103634
 6355 Fit      -0.105321
 6356 Fit      -0.107227
 6357 Fit      -0.109026
 6358 Fit      -0.110443
 6359 Fit      -0.111310
 6360 Fit      -0.111619
 6361 Fit      -0.111522
 6362 Fit      -0.111290
 6363 Fit      -0.111216
 6364 Fit      -0.111512
 6365 Fit      -0.112223
 6366 Fit      -0.113213
 6367 Fit      -0.114204
 6368 Fit      -0.114880
 6369 Fit      -0.115004
 6370 Fit      -0.114494
 6371 Fit      -0.113450
 6372 Fit      -0.112114
 6373 Fit      -0.110803
 6374 Fit      -0.112144
 6375 Fit      -0.119547
 -----------------------------------------------------------------
 Leave Link  602 at Thu Apr 12 07:12:55 2018, MaxMem=   33554432 cpu:       1.1

 Test job not archived.
 1\1\GINC-N0631\FOpt\RHF\6-31G(d)\C2F6N1O4S2(1-)\WAB665\12-Apr-2018\0\\
 #HF/6-31G* SCF=tight Test Pop=MK iop(6/33=2) NoSymm iop(6/42=6) opt\\r
 emark line goes here\\-1,1\N,-0.3286205234,0.5324219602,1.5668310121\S
 ,-1.2880290283,-0.3694135696,0.6943196971\S,-0.7597974942,1.3876597033
 ,2.809154515\O,-1.9647707071,-1.4097188996,1.4118903187\O,-2.030777813
 7,0.3494390885,-0.2970742728\O,0.0818013046,2.5367225174,2.9350997565\
 O,-2.1754403143,1.5435697786,2.965290004\C,0.0069127103,-1.2299804644,
 -0.2452209149\C,-0.2609779266,0.3559017638,4.222600854\F,-0.5723059025
 ,-2.0707791876,-1.0803402359\F,0.7383036477,-0.3987274452,-0.949304332
 \F,0.7996587744,-1.9222257313,0.5401448738\F,1.0308095876,0.1082905873
 ,4.1963056126\F,-0.9001161678,-0.7889230638,4.2375466429\F,-0.52965014
 66,0.9917629622,5.346756469\\Version=EM64L-G09RevA.02\HF=-1821.186938\
 RMSD=5.441e-09\RMSF=9.557e-05\Dipole=1.2887972,-1.2685311,0.2761149\Qu
 adrupole=2.037809,3.0902713,-5.1280803,-0.1007777,5.7949391,-8.5697939
 \PG=C01 [X(C2F6N1O4S2)]\\@


 "TIGER, TIGER BURNING BRIGHT
 IN THE FOREST OF THE NIGHT.
 WHAT IMMORTAL HAND OR EYE
 CAN FRAME THY FEARFUL SYMMETRYE?"
                     - WILLIAM BLAKE
 Job cpu time:  0 days  0 hours  2 minutes 29.2 seconds.
 File lengths (MBytes):  RWF=    178 Int=      0 D2E=      0 Chk=      6 Scr=      4
 Normal termination of Gaussian 09 at Thu Apr 12 07:12:55 2018.
